
                                 *****************
                                 * O   R   C   A *
                                 *****************

           --- An Ab Initio, DFT and Semiempirical electronic structure package ---

                  #######################################################
                  #                        -***-                        #
                  #          Department of theory and spectroscopy      #
                  #               Directorship: Frank Neese             #
                  #        Max Planck Institute fuer Kohlenforschung    #
                  #                Kaiser Wilhelm Platz 1               #
                  #                 D-45470 Muelheim/Ruhr               #
                  #                      Germany                        #
                  #                                                     #
                  #                  All rights reserved                #
                  #                        -***-                        #
                  #######################################################


                         Program Version 4.2.1 -  RELEASE  -


 With contributions from (in alphabetic order):
   Daniel Aravena         : Magnetic Suceptibility
   Michael Atanasov       : Ab Initio Ligand Field Theory (pilot matlab implementation)
   Alexander A. Auer      : GIAO ZORA, VPT2
   Ute Becker             : Parallelization
   Giovanni Bistoni       : ED, misc. LED, open-shell LED, HFLD
   Martin Brehm           : Molecular dynamics
   Dmytro Bykov           : SCF Hessian
   Vijay G. Chilkuri      : MRCI spin determinant printing, contributions to CSF-ICE
   Dipayan Datta          : RHF DLPNO-CCSD density
   Achintya Kumar Dutta   : EOM-CC, STEOM-CC
   Dmitry Ganyushin       : Spin-Orbit,Spin-Spin,Magnetic field MRCI
   Miquel Garcia          : C-PCM Hessian, Gaussian charge scheme
   Yang Guo               : DLPNO-NEVPT2, CIM, IAO-localization
   Andreas Hansen         : Spin unrestricted coupled pair/coupled cluster methods
   Benjamin Helmich-Paris : CASSCF linear response (MC-RPA)
   Lee Huntington         : MR-EOM, pCC
   Robert Izsak           : Overlap fitted RIJCOSX, COSX-SCS-MP3, EOM
   Christian Kollmar      : KDIIS, OOCD, Brueckner-CCSD(T), CCSD density
   Simone Kossmann        : Meta GGA functionals, TD-DFT gradient, OOMP2, MP2 Hessian
   Martin Krupicka        : AUTO-CI
   Lucas Lang             : DCDCAS
   Dagmar Lenk            : GEPOL surface, SMD
   Dimitrios Liakos       : Extrapolation schemes; Compound Job, initial MDCI parallelization
   Dimitrios Manganas     : Further ROCIS development; embedding schemes
   Dimitrios Pantazis     : SARC Basis sets
   Taras Petrenko         : DFT Hessian,TD-DFT gradient, ASA, ECA, R-Raman, ABS, FL, XAS/XES, NRVS
   Peter Pinski           : DLPNO-MP2, DLPNO-MP2 Gradient
   Christoph Reimann      : Effective Core Potentials
   Marius Retegan         : Local ZFS, SOC
   Christoph Riplinger    : Optimizer, TS searches, QM/MM, DLPNO-CCSD(T), (RO)-DLPNO pert. Triples
   Tobias Risthaus        : Range-separated hybrids, TD-DFT gradient, RPA, STAB
   Michael Roemelt        : Original ROCIS implementation
   Masaaki Saitow         : Open-shell DLPNO-CCSD energy and density
   Barbara Sandhoefer     : DKH picture change effects
   Avijit Sen             : IP-ROCIS
   Kantharuban Sivalingam : CASSCF convergence, NEVPT2, FIC-MRCI
   Bernardo de Souza      : ESD, SOC TD-DFT
   Georgi Stoychev        : AutoAux, RI-MP2 NMR
   Willem Van den Heuvel  : Paramagnetic NMR
   Boris Wezisla          : Elementary symmetry handling
   Frank Wennmohs         : Technical directorship


 We gratefully acknowledge several colleagues who have allowed us to
 interface, adapt or use parts of their codes:
   Stefan Grimme, W. Hujo, H. Kruse,             : VdW corrections, initial TS optimization,
                  C. Bannwarth                     DFT functionals, gCP, sTDA/sTD-DF
   Ed Valeev, F. Pavosevic, A. Kumar             : LibInt (2-el integral package), F12 methods
   Garnet Chan, S. Sharma, J. Yang, R. Olivares  : DMRG
   Ulf Ekstrom                                   : XCFun DFT Library
   Mihaly Kallay                                 : mrcc  (arbitrary order and MRCC methods)
   Andreas Klamt, Michael Diedenhofen            : otool_cosmo (COSMO solvation model)
   Jiri Pittner, Ondrej Demel                    : Mk-CCSD
   Frank Weinhold                                : gennbo (NPA and NBO analysis)
   Christopher J. Cramer and Donald G. Truhlar   : smd solvation model
   Lars Goerigk                                  : TD-DFT with DH, B97 family of functionals
   V. Asgeirsson, H. Jonsson                     : NEB implementation
   FAccTs GmbH                                   : IRC, NEB, NEB-TS, Multilevel, MM, QM/MM, CI optimization
   S Lehtola, MJT Oliveira, MAL Marques          : LibXC Library


 Your calculation uses the libint2 library for the computation of 2-el integrals
 For citations please refer to: http://libint.valeyev.net

 Your ORCA version has been built with support for libXC version: 4.2.3
 For citations please refer to: https://tddft.org/programs/libxc/

 This ORCA versions uses:
   CBLAS   interface :  Fast vector & matrix operations
   LAPACKE interface :  Fast linear algebra routines
   SCALAPACK package :  Parallel linear algebra routines


Your calculation utilizes the atom-pairwise dispersion correction
with the Becke-Johnson damping scheme (D3BJ)
Cite in your paper:
S.Grimme, S.Ehrlich, L.Goerigk, J Comput Chem, (2011), 32, 1456–1465 
S.Grimme, J.Antony, S.Ehrlich and H.Krieg, J.Chem.Phys., 132, (2010), 154104 
   

----- Orbital basis set information -----
Your calculation utilizes the basis: def2-SVP
   F. Weigend and R. Ahlrichs, Phys. Chem. Chem. Phys. 7, 3297 (2005).

----- AuxJ basis set information -----
Your calculation utilizes the auxiliary basis: def2/J
   F. Weigend, Phys. Chem. Chem. Phys. 8, 1057 (2006).

================================================================================
                                        WARNINGS
                       Please study these warnings very carefully!
================================================================================


WARNING: Geometry Optimization
  ===> : Switching off AutoStart
         For restart on a previous wavefunction, please use MOREAD

INFO   : the flag for use of LIBINT has been found!

================================================================================
                                       INPUT FILE
================================================================================
NAME = manual_328.inp
|  1> ! OptTS Freq PBE0 RIJCOSX D3BJ def2-SVP def2/J CPCM(Acetone)
|  2> %geom
|  3> modify_internal
|  4> { B 1 8 A } end
|  5> end
|  6> %geom
|  7> modify_internal
|  8> { B 1 2 A } end
|  9> end
| 10> %output 
| 11> xyzfile=True 
| 12> end 
| 13> %scf 
| 14> maxiter 250 
| 15> end
| 16> %output
| 17> Print[P_Hirshfeld] = 1
| 18> end
| 19> % maxcore
| 20> 4000
| 21> %geom
| 22> Calc_Hess true
| 23> Recalc_Hess 30
| 24> Trust -0.1
| 25> MaxIter 150
| 26> end
| 27> %pal nprocs 4
| 28> end
| 29> *xyz -1 1
| 30> C    -1.58783  -0.30343   0.81646
| 31> C    -0.39650  -0.68610  -0.00010
| 32> Br    0.76468   1.51907   0.02157
| 33> H    -2.28991  -1.14878   0.83567
| 34> H    -1.29677  -0.05864   1.84739
| 35> H    -2.09829   0.56398   0.37749
| 36> H    -0.41885  -0.61413  -1.08261
| 37> H     0.49986  -1.09077   0.45547
| 38> Br   -0.89187  -3.02169  -0.39435 
| 39> *
| 40> 
| 41>                          ****END OF INPUT****
================================================================================

                       *****************************
                       * Geometry Optimization Run *
                       *****************************

Geometry optimization settings:
Update method            Update   .... Bofill
Choice of coordinates    CoordSys .... Z-matrix Internals
Initial Hessian          InHess   .... Almoef's Model

Convergence Tolerances:
Energy Change            TolE     ....  5.0000e-06 Eh
Max. Gradient            TolMAXG  ....  3.0000e-04 Eh/bohr
RMS Gradient             TolRMSG  ....  1.0000e-04 Eh/bohr
Max. Displacement        TolMAXD  ....  4.0000e-03 bohr
RMS Displacement         TolRMSD  ....  2.0000e-03 bohr
Strict Convergence                ....  False
------------------------------------------------------------------------------
                        ORCA OPTIMIZATION COORDINATE SETUP
------------------------------------------------------------------------------

The optimization will be done in new redundant internal coordinates
Making redundant internal coordinates   ...  (new redundants) Bond   8,  1 is already included
Bond   2,  1 is already included
done
Following TS mode number                ...     0
Evaluating the initial hessian          ...  (Is done on the fly) done
Evaluating the coordinates              ...  done
Calculating the B-matrix                .... done
Calculating the G-matrix                .... done
Diagonalizing the G-matrix              .... done
The first mode is                       ....   34
The number of degrees of freedom        ....   21

    -----------------------------------------------------------------
                    Redundant Internal Coordinates


    -----------------------------------------------------------------
         Definition                    Initial Value    d2E/dq (diagonal element)
    -----------------------------------------------------------------
      1. B(C   1,C   0)                  1.4941         0.000000   
      2. B(Br  2,C   1)                  2.4923         0.000000   
      3. B(Br  2,C   0)                  3.0802         0.000000   
      4. B(H   3,C   0)                  1.0990         0.000000   
      5. B(H   4,Br  2)                  3.1737         0.000000   
      6. B(H   4,C   0)                  1.0988         0.000000   
      7. B(H   5,Br  2)                  3.0390         0.000000   
      8. B(H   5,C   0)                  1.0980         0.000000   
      9. B(H   6,Br  2)                  2.6778         0.000000   
     10. B(H   6,C   1)                  1.0851         0.000000   
     11. B(H   7,Br  2)                  2.6589         0.000000   
     12. B(H   7,C   1)                  1.0839         0.000000   
     13. B(Br  8,C   1)                  2.4199         0.000000   
     14. A(Br  2,C   0,H   3)          161.3525         0.000000   
     15. A(H   4,C   0,H   5)          108.7978         0.000000   
     16. A(C   1,C   0,H   4)          111.0135         0.000000   
     17. A(Br  2,C   0,H   4)           84.7215         0.000000   
     18. A(H   3,C   0,H   4)          108.9145         0.000000   
     19. A(C   1,C   0,Br  2)           53.2404         0.000000   
     20. A(C   1,C   0,H   3)          108.7779         0.000000   
     21. A(H   3,C   0,H   5)          108.5198         0.000000   
     22. A(C   1,C   0,H   5)          110.7634         0.000000   
     23. A(Br  2,C   0,H   5)           77.5539         0.000000   
     24. A(C   0,C   1,H   6)          120.7823         0.000000   
     25. A(H   7,C   1,Br  8)           82.9590         0.000000   
     26. A(H   6,C   1,Br  8)           84.1036         0.000000   
     27. A(C   0,C   1,Br  8)           99.9628         0.000000   
     28. A(Br  2,C   1,Br  8)          161.9460         0.000000   
     29. A(Br  2,C   1,H   7)           86.6396         0.000000   
     30. A(Br  2,C   1,H   6)           87.6839         0.000000   
     31. A(H   6,C   1,H   7)          117.4582         0.000000   
     32. A(C   0,C   1,Br  2)           98.0550         0.000000   
     33. A(C   0,C   1,H   7)          121.6891         0.000000   
     34. A(C   0,Br  2,C   1)           28.7046         0.000000   
     35. D(H   6,C   1,C   0,Br  2)    -92.1087         0.000000   
     36. D(H   6,C   1,C   0,H   5)    -36.9224         0.000000   
     37. D(Br  8,C   1,C   0,H   4)    113.0543         0.000000   
     38. D(Br  8,C   1,C   0,H   3)     -6.7723         0.000000   
     39. D(H   7,C   1,C   0,H   4)     25.2218         0.000000   
     40. D(H   7,C   1,C   0,H   5)    146.2059         0.000000   
     41. D(H   6,C   1,C   0,H   4)   -157.9065         0.000000   
     42. D(H   7,C   1,C   0,H   3)    -94.6048         0.000000   
     43. D(H   6,C   1,C   0,H   3)     82.2669         0.000000   
     44. D(Br  8,C   1,C   0,H   5)   -125.9616         0.000000   
     45. D(Br  8,C   1,C   0,Br  2)    178.8521         0.000000   
     46. D(Br  2,C   1,C   0,H   3)    174.3756         0.000000   
     47. D(Br  2,C   1,C   0,H   4)    -65.7978         0.000000   
     48. D(Br  2,C   1,C   0,H   5)     55.1863         0.000000   
     49. D(H   7,C   1,C   0,Br  2)     91.0196         0.000000   
     50. D(C   0,Br  2,C   1,Br  8)   -176.3498         0.000000   
     51. D(C   0,Br  2,C   1,H   7)   -121.5437         0.000000   
     52. D(C   0,Br  2,C   1,H   6)    120.7689         0.000000   
     53. D(C   1,Br  2,C   0,H   5)   -128.1714         0.000000   
     54. D(C   1,Br  2,C   0,H   4)    121.2323         0.000000   
     55. D(C   1,Br  2,C   0,H   3)    -16.8700         0.000000   
    -----------------------------------------------------------------

Number of atoms                         .... 9
Number of degrees of freedom            .... 55

         *************************************************************
         *                GEOMETRY OPTIMIZATION CYCLE   1            *
         *************************************************************
---------------------------------
CARTESIAN COORDINATES (ANGSTROEM)
---------------------------------
  C     -1.587830   -0.303430    0.816460
  C     -0.396500   -0.686100   -0.000100
  Br     0.764680    1.519070    0.021570
  H     -2.289910   -1.148780    0.835670
  H     -1.296770   -0.058640    1.847390
  H     -2.098290    0.563980    0.377490
  H     -0.418850   -0.614130   -1.082610
  H      0.499860   -1.090770    0.455470
  Br    -0.891870   -3.021690   -0.394350

----------------------------
CARTESIAN COORDINATES (A.U.)
----------------------------
  NO LB      ZA    FRAG     MASS         X           Y           Z
   0 C     6.0000    0    12.011   -3.000564   -0.573400    1.542886
   1 C     6.0000    0    12.011   -0.749276   -1.296541   -0.000189
   2 Br   35.0000    0    79.900    1.445036    2.870626    0.040761
   3 H     1.0000    0     1.008   -4.327303   -2.170880    1.579187
   4 H     1.0000    0     1.008   -2.450540   -0.110814    3.491061
   5 H     1.0000    0     1.008   -3.965193    1.065768    0.713353
   6 H     1.0000    0     1.008   -0.791512   -1.160538   -2.045836
   7 H     1.0000    0     1.008    0.944599   -2.061257    0.860714
   8 Br   35.0000    0    79.900   -1.685390   -5.710167   -0.745214

--------------------------------
INTERNAL COORDINATES (ANGSTROEM)
--------------------------------
 C      0   0   0     0.000000000000     0.00000000     0.00000000
 C      1   0   0     1.494146489271     0.00000000     0.00000000
 Br     2   1   0     2.492304818877    98.05498997     0.00000000
 H      1   2   3     1.099045937620   108.77792458   174.37558363
 H      1   2   3     1.098842451219   111.01351954   294.20218828
 H      1   2   3     1.098027404303   110.76337003    55.18625666
 H      2   1   3     1.085129993826   120.78231833   267.89134062
 H      2   1   3     1.083864882446   121.68913880    91.01959677
 Br     2   1   3     2.419877093470    99.96281053   178.85213133

---------------------------
INTERNAL COORDINATES (A.U.)
---------------------------
 C      0   0   0     0.000000000000     0.00000000     0.00000000
 C      1   0   0     2.823527668682     0.00000000     0.00000000
 Br     2   1   0     4.709773549931    98.05498997     0.00000000
 H      1   2   3     2.076895830701   108.77792458   174.37558363
 H      1   2   3     2.076511297130   111.01351954   294.20218828
 H      1   2   3     2.074971081673   110.76337003    55.18625666
 H      2   1   3     2.050598508034   120.78231833   267.89134062
 H      2   1   3     2.048207793998   121.68913880    91.01959677
 Br     2   1   3     4.572904984407    99.96281053   178.85213133

---------------------
BASIS SET INFORMATION
---------------------
There are 3 groups of distinct atoms

 Group   1 Type C   : 7s4p1d contracted to 3s2p1d pattern {511/31/1}
 Group   2 Type Br  : 14s10p6d contracted to 5s4p3d pattern {63311/5311/411}
 Group   3 Type H   : 4s1p contracted to 2s1p pattern {31/1}

Atom   0C    basis set group =>   1
Atom   1C    basis set group =>   1
Atom   2Br   basis set group =>   2
Atom   3H    basis set group =>   3
Atom   4H    basis set group =>   3
Atom   5H    basis set group =>   3
Atom   6H    basis set group =>   3
Atom   7H    basis set group =>   3
Atom   8Br   basis set group =>   2
---------------------------------
AUXILIARY/J BASIS SET INFORMATION
---------------------------------
There are 3 groups of distinct atoms

 Group   1 Type C   : 12s5p4d2f1g contracted to 6s4p3d1f1g pattern {711111/2111/211/2/1}
 Group   2 Type Br  : 19s5p5d3f1g contracted to 8s4p3d2f1g pattern {121111111/2111/311/21/1}
 Group   3 Type H   : 5s2p1d contracted to 3s1p1d pattern {311/2/1}

Atom   0C    basis set group =>   1
Atom   1C    basis set group =>   1
Atom   2Br   basis set group =>   2
Atom   3H    basis set group =>   3
Atom   4H    basis set group =>   3
Atom   5H    basis set group =>   3
Atom   6H    basis set group =>   3
Atom   7H    basis set group =>   3
Atom   8Br   basis set group =>   2
[1631208293.090473] [comp0806:236158:0]            sys.c:618  UCX  ERROR shmget(size=2097152 flags=0xfb0) for mm_recv_desc failed: Operation not permitted, please check shared memory limits by 'ipcs -l'
[1631208293.092480] [comp0806:236154:0]            sys.c:618  UCX  ERROR shmget(size=2097152 flags=0xfb0) for mm_recv_desc failed: Operation not permitted, please check shared memory limits by 'ipcs -l'
[1631208293.097020] [comp0806:236161:0]            sys.c:618  UCX  ERROR shmget(size=2097152 flags=0xfb0) for mm_recv_desc failed: Operation not permitted, please check shared memory limits by 'ipcs -l'
[1631208293.098221] [comp0806:236156:0]            sys.c:618  UCX  ERROR shmget(size=2097152 flags=0xfb0) for mm_recv_desc failed: Operation not permitted, please check shared memory limits by 'ipcs -l'
[1631208293.105155] [comp0806:236154:0]            sys.c:618  UCX  ERROR shmget(size=2097152 flags=0xb80) for ucp_am_bufs failed: Operation not permitted, please check shared memory limits by 'ipcs -l'
[1631208293.110492] [comp0806:236156:0]            sys.c:618  UCX  ERROR shmget(size=2097152 flags=0xb80) for ucp_am_bufs failed: Operation not permitted, please check shared memory limits by 'ipcs -l'
[1631208293.110546] [comp0806:236161:0]            sys.c:618  UCX  ERROR shmget(size=2097152 flags=0xb80) for ucp_am_bufs failed: Operation not permitted, please check shared memory limits by 'ipcs -l'
[1631208293.111545] [comp0806:236158:0]            sys.c:618  UCX  ERROR shmget(size=2097152 flags=0xb80) for ucp_am_bufs failed: Operation not permitted, please check shared memory limits by 'ipcs -l'


           ************************************************************
           *        Program running with 4 parallel MPI-processes     *
           *              working on a common directory               *
           ************************************************************
------------------------------------------------------------------------------
                           ORCA GTO INTEGRAL CALCULATION
                           -- RI-GTO INTEGRALS CHOSEN --
------------------------------------------------------------------------------

                         BASIS SET STATISTICS AND STARTUP INFO

Gaussian basis set:
 # of primitive gaussian shells          ...  109
 # of primitive gaussian functions       ...  231
 # of contracted shells                  ...   51
 # of contracted basis functions         ...  117
 Highest angular momentum                ...    2
 Maximum contraction depth               ...    6
Auxiliary gaussian basis set:
 # of primitive gaussian shells          ...  154
 # of primitive gaussian functions       ...  398
 # of contracted shells                  ...   91
 # of contracted aux-basis functions     ...  269
 Highest angular momentum                ...    4
 Maximum contraction depth               ...   12
Ratio of auxiliary to basis functions    ...  2.30
Integral package used                  ... LIBINT
 One Electron integrals                  ... done
 Ordering auxiliary basis shells         ... done
 Integral threshhold             Thresh  ...  2.500e-11
 Primitive cut-off               TCut    ...  2.500e-12
 Pre-screening matrix                    ... done
 Shell pair data                         ... 
 Ordering of the shell pairs             ... done (   0.000 sec) 1213 of 1326 pairs
 Determination of significant pairs      ... done (   0.000 sec)
 Creation of shell pair data             ... done (   0.000 sec)
 Storage of shell pair data              ... done (   0.014 sec)
 Shell pair data done in (   0.015 sec)
 Computing two index integrals           ... done
 Cholesky decomposition of the V-matrix  ... done


Timings:
 Total evaluation time                   ...   0.201 sec (  0.003 min)
 One electron matrix time                ...   0.023 sec (  0.000 min) = 11.3%
 Schwartz matrix evaluation time         ...   0.129 sec (  0.002 min) = 64.1%
 Two index repulsion integral time       ...   0.002 sec (  0.000 min) =  0.8%
 Cholesky decomposition of V             ...   0.001 sec (  0.000 min) =  0.7%
 Three index repulsion integral time     ...   0.000 sec (  0.000 min) =  0.0%

[1631208294.208964] [comp0806:236213:0]            sys.c:618  UCX  ERROR shmget(size=2097152 flags=0xfb0) for mm_recv_desc failed: Operation not permitted, please check shared memory limits by 'ipcs -l'
[1631208294.210637] [comp0806:236211:0]            sys.c:618  UCX  ERROR shmget(size=2097152 flags=0xfb0) for mm_recv_desc failed: Operation not permitted, please check shared memory limits by 'ipcs -l'
[1631208294.227485] [comp0806:236212:0]            sys.c:618  UCX  ERROR shmget(size=2097152 flags=0xfb0) for mm_recv_desc failed: Operation not permitted, please check shared memory limits by 'ipcs -l'
[1631208294.227609] [comp0806:236214:0]            sys.c:618  UCX  ERROR shmget(size=2097152 flags=0xfb0) for mm_recv_desc failed: Operation not permitted, please check shared memory limits by 'ipcs -l'
[1631208294.237106] [comp0806:236212:0]            sys.c:618  UCX  ERROR shmget(size=2097152 flags=0xb80) for ucp_am_bufs failed: Operation not permitted, please check shared memory limits by 'ipcs -l'
[1631208294.237840] [comp0806:236211:0]            sys.c:618  UCX  ERROR shmget(size=2097152 flags=0xb80) for ucp_am_bufs failed: Operation not permitted, please check shared memory limits by 'ipcs -l'
[1631208294.238651] [comp0806:236214:0]            sys.c:618  UCX  ERROR shmget(size=2097152 flags=0xb80) for ucp_am_bufs failed: Operation not permitted, please check shared memory limits by 'ipcs -l'


           ************************************************************
           *        Program running with 4 parallel MPI-processes     *
           *              working on a common directory               *
           ************************************************************
[1631208294.242001] [comp0806:236213:0]            sys.c:618  UCX  ERROR shmget(size=2097152 flags=0xb80) for ucp_am_bufs failed: Operation not permitted, please check shared memory limits by 'ipcs -l'
-------------------------------------------------------------------------------
                                 ORCA SCF
-------------------------------------------------------------------------------

------------
SCF SETTINGS
------------
Hamiltonian:
 Density Functional     Method          .... DFT(GTOs)
 Exchange Functional    Exchange        .... PBE
   PBE kappa parameter   XKappa         ....  0.804000
   PBE mue parameter    XMuePBE         ....  0.219520
 Correlation Functional Correlation     .... PBE
   PBE beta parameter  CBetaPBE         ....  0.066725
 LDA part of GGA corr.  LDAOpt          .... PW91-LDA
 Gradients option       PostSCFGGA      .... off
 Hybrid DFT is turned on
   Fraction HF Exchange ScalHFX         ....  0.250000
   Scaling of DF-GGA-X  ScalDFX         ....  0.750000
   Scaling of DF-GGA-C  ScalDFC         ....  1.000000
   Scaling of DF-LDA-C  ScalLDAC        ....  1.000000
   Perturbative correction              ....  0.000000
   Density functional embedding theory  .... OFF
   NL short-range parameter             ....  6.900000
 RI-approximation to the Coulomb term is turned on
   Number of auxiliary basis functions  .... 269
   RIJ-COSX (HFX calculated with COS-X)).... on


General Settings:
 Integral files         IntName         .... manual_328
 Hartree-Fock type      HFTyp           .... RHF
 Total Charge           Charge          ....   -1
 Multiplicity           Mult            ....    1
 Number of Electrons    NEL             ....   88
 Basis Dimension        Dim             ....  117
 Nuclear Repulsion      ENuc            ....    395.0895815998 Eh

Convergence Acceleration:
 DIIS                   CNVDIIS         .... on
   Start iteration      DIISMaxIt       ....    12
   Startup error        DIISStart       ....  0.200000
   # of expansion vecs  DIISMaxEq       ....     5
   Bias factor          DIISBfac        ....   1.050
   Max. coefficient     DIISMaxC        ....  10.000
 Newton-Raphson         CNVNR           .... off
 SOSCF                  CNVSOSCF        .... on
   Start iteration      SOSCFMaxIt      ....   150
   Startup grad/error   SOSCFStart      ....  0.003300
 Level Shifting         CNVShift        .... on
   Level shift para.    LevelShift      ....    0.2500
   Turn off err/grad.   ShiftErr        ....    0.0010
 Zerner damping         CNVZerner       .... off
 Static damping         CNVDamp         .... on
   Fraction old density DampFac         ....    0.7000
   Max. Damping (<1)    DampMax         ....    0.9800
   Min. Damping (>=0)   DampMin         ....    0.0000
   Turn off err/grad.   DampErr         ....    0.1000
 Fernandez-Rico         CNVRico         .... off

SCF Procedure:
 Maximum # iterations   MaxIter         ....   250
 SCF integral mode      SCFMode         .... Direct
   Integral package                     .... LIBINT
 Reset frequency        DirectResetFreq ....    20
 Integral Threshold     Thresh          ....  2.500e-11 Eh
 Primitive CutOff       TCut            ....  2.500e-12 Eh

Convergence Tolerance:
 Convergence Check Mode ConvCheckMode   .... Total+1el-Energy
 Convergence forced     ConvForced      .... 0
 Energy Change          TolE            ....  1.000e-08 Eh
 1-El. energy change                    ....  1.000e-05 Eh
 Orbital Gradient       TolG            ....  1.000e-05
 Orbital Rotation angle TolX            ....  1.000e-05
 DIIS Error             TolErr          ....  5.000e-07


Diagonalization of the overlap matrix:
Smallest eigenvalue                        ... 3.543e-03
Time for diagonalization                   ...    0.004 sec
Threshold for overlap eigenvalues          ... 1.000e-08
Number of eigenvalues below threshold      ... 0
Time for construction of square roots      ...    0.001 sec
Total time needed                          ...    0.006 sec

-------------------
DFT GRID GENERATION
-------------------

General Integration Accuracy     IntAcc      ...  4.340
Radial Grid Type                 RadialGrid  ... Gauss-Chebyshev
Angular Grid (max. acc.)         AngularGrid ... Lebedev-110
Angular grid pruning method      GridPruning ... 3 (G Style)
Weight generation scheme         WeightScheme... Becke
Basis function cutoff            BFCut       ...    1.0000e-11
Integration weight cutoff        WCut        ...    1.0000e-14
Grids for H and He will be reduced by one unit

# of grid points (after initial pruning)     ...  13062 (   0.0 sec)
# of grid points (after weights+screening)   ...  12593 (   0.0 sec)
nearest neighbour list constructed           ...    0.0 sec
Grid point re-assignment to atoms done       ...    0.0 sec
Grid point division into batches done        ...    0.0 sec
Reduced shell lists constructed in    0.1 sec

Total number of grid points                  ...    12593
Total number of batches                      ...      202
Average number of points per batch           ...       62
Average number of grid points per atom       ...     1399
Average number of shells per batch           ...    35.25 (69.12%)
Average number of basis functions per batch  ...    78.40 (67.01%)
Average number of large shells per batch     ...    30.10 (85.38%)
Average number of large basis fcns per batch ...    65.21 (83.17%)
Maximum spatial batch extension              ...  18.09, 14.64, 20.19 au
Average spatial batch extension              ...   0.95,  0.86,  0.96 au

Time for grid setup =    0.073 sec

------------------------------
INITIAL GUESS: MODEL POTENTIAL
------------------------------
Loading Hartree-Fock densities                     ... done
Calculating cut-offs                               ... done
Setting up the integral package                    ... done
Initializing the effective Hamiltonian             ... done
Starting the Coulomb interaction                   ... done (   0.0 sec)
Reading the grid                                   ... done
Mapping shells                                     ... done
Starting the XC term evaluation                    ... done (   0.0 sec)
  promolecular density results
     # of electrons  =     87.003186642
     EX              =   -190.185201655
     EC              =     -3.960942752
     EX+EC           =   -194.146144407
Transforming the Hamiltonian                       ... done (   0.0 sec)
Diagonalizing the Hamiltonian                      ... done (   0.0 sec)
Back transforming the eigenvectors                 ... done (   0.0 sec)
Now organizing SCF variables                       ... done
                      ------------------
                      INITIAL GUESS DONE (   0.2 sec)
                      ------------------
--------------------
COSX GRID GENERATION
--------------------

General Integration Accuracy     IntAcc      ...  3.340
Radial Grid Type                 RadialGrid  ... Gauss-Chebyshev
Angular Grid (max. acc.)         AngularGrid ... Lebedev-50
Angular grid pruning method      GridPruning ... 3 (G Style)
Weight generation scheme         WeightScheme... Becke
Basis function cutoff            BFCut       ...    1.0000e-11
Integration weight cutoff        WCut        ...    1.0000e-14
Grids for H and He will be reduced by one unit

# of grid points (after initial pruning)     ...   4844 (   0.0 sec)
# of grid points (after weights+screening)   ...   4667 (   0.0 sec)
nearest neighbour list constructed           ...    0.0 sec
Grid point re-assignment to atoms done       ...    0.0 sec
Grid point division into batches done        ...    0.0 sec
Reduced shell lists constructed in    0.0 sec

Total number of grid points                  ...     4667
Total number of batches                      ...       78
Average number of points per batch           ...       59
Average number of grid points per atom       ...      519
Average number of shells per batch           ...    37.19 (72.92%)
Average number of basis functions per batch  ...    83.38 (71.27%)
Average number of large shells per batch     ...    32.19 (86.56%)
Average number of large basis fcns per batch ...    70.19 (84.18%)
Maximum spatial batch extension              ...  13.60, 14.82, 19.57 au
Average spatial batch extension              ...   1.11,  1.09,  1.16 au

Overlap Fitting                  UseSFitting ... on
Constructing numerical overlap ... done (      0.0 sec)
Inverting numerical overlap    ... done (      0.0 sec)
Obtaining analytic overlap     ... done (      0.0 sec)
Final contraction and storage  ... done (      0.0 sec)


General Integration Accuracy     IntAcc      ...  3.670
Radial Grid Type                 RadialGrid  ... Gauss-Chebyshev
Angular Grid (max. acc.)         AngularGrid ... Lebedev-50
Angular grid pruning method      GridPruning ... 3 (G Style)
Weight generation scheme         WeightScheme... Becke
Basis function cutoff            BFCut       ...    1.0000e-11
Integration weight cutoff        WCut        ...    1.0000e-14
Grids for H and He will be reduced by one unit

# of grid points (after initial pruning)     ...   6004 (   0.0 sec)
# of grid points (after weights+screening)   ...   5771 (   0.0 sec)
nearest neighbour list constructed           ...    0.0 sec
Grid point re-assignment to atoms done       ...    0.0 sec
Grid point division into batches done        ...    0.0 sec
Reduced shell lists constructed in    0.0 sec

Total number of grid points                  ...     5771
Total number of batches                      ...       96
Average number of points per batch           ...       60
Average number of grid points per atom       ...      641
Average number of shells per batch           ...    36.40 (71.37%)
Average number of basis functions per batch  ...    81.44 (69.61%)
Average number of large shells per batch     ...    31.12 (85.49%)
Average number of large basis fcns per batch ...    67.44 (82.81%)
Maximum spatial batch extension              ...  16.53, 15.29, 21.36 au
Average spatial batch extension              ...   1.12,  1.01,  1.21 au

Overlap Fitting                  UseSFitting ... on
Constructing numerical overlap ... done (      0.0 sec)
Inverting numerical overlap    ... done (      0.0 sec)
Obtaining analytic overlap     ... done (      0.0 sec)
Final contraction and storage  ... done (      0.0 sec)


General Integration Accuracy     IntAcc      ...  4.010
Radial Grid Type                 RadialGrid  ... Gauss-Chebyshev
Angular Grid (max. acc.)         AngularGrid ... Lebedev-110
Angular grid pruning method      GridPruning ... 3 (G Style)
Weight generation scheme         WeightScheme... Becke
Basis function cutoff            BFCut       ...    1.0000e-11
Integration weight cutoff        WCut        ...    1.0000e-14
Grids for H and He will be reduced by one unit

# of grid points (after initial pruning)     ...  11440 (   0.0 sec)
# of grid points (after weights+screening)   ...  11042 (   0.0 sec)
nearest neighbour list constructed           ...    0.0 sec
Grid point re-assignment to atoms done       ...    0.0 sec
Grid point division into batches done        ...    0.0 sec
Reduced shell lists constructed in    0.0 sec

Total number of grid points                  ...    11042
Total number of batches                      ...      177
Average number of points per batch           ...       62
Average number of grid points per atom       ...     1227
Average number of shells per batch           ...    35.37 (69.35%)
Average number of basis functions per batch  ...    78.98 (67.50%)
Average number of large shells per batch     ...    29.98 (84.76%)
Average number of large basis fcns per batch ...    64.76 (82.00%)
Maximum spatial batch extension              ...  17.59, 15.15, 19.33 au
Average spatial batch extension              ...   0.97,  0.88,  0.99 au

Overlap Fitting                  UseSFitting ... on
Constructing numerical overlap ... done (      0.0 sec)
Inverting numerical overlap    ... done (      0.0 sec)
Obtaining analytic overlap     ... done (      0.0 sec)
Final contraction and storage  ... done (      0.0 sec)

Time for X-Grid setup             =    0.148 sec

--------------------
CPCM SOLVATION MODEL
--------------------
CPCM parameters:
  Epsilon                                         ...      20.7000
  Refrac                                          ...       1.3590
  Rsolv                                           ...       1.3000
  Surface type                                    ...    GEPOL SES
  Epsilon function type                           ...         CPCM
Radii:
 Radius for C  used is    3.7795 Bohr (=   2.0000 Ang.)
 Radius for Br used is    4.0818 Bohr (=   2.1600 Ang.)
 Radius for H  used is    2.4566 Bohr (=   1.3000 Ang.)
Calculating surface                               ...        done! (  0.0s)
GEPOL surface points                              ...          340
GEPOL Volume                                      ...     846.0944
GEPOL Surface-area                                ...     502.6829
Calculating surface distance matrix               ...        done! (  0.0s)
Performing Cholesky decomposition & store         ...        done! (  0.1s)
Overall time for CPCM initialization              ...                 0.1s
--------------
SCF ITERATIONS
--------------
ITER       Energy         Delta-E        Max-DP      RMS-DP      [F,P]     Damp
               ***  Starting incremental Fock matrix formation  ***
  0  -5226.2167874702   0.000000000000 0.07636951  0.00219854  0.1484246 0.7000
  1  -5226.2528809640  -0.036093493789 0.06164070  0.00170939  0.0788150 0.7000
                               ***Turning on DIIS***
  2  -5226.2703726819  -0.017491717973 0.13350412  0.00345701  0.0325810 0.0000
  3  -5226.2975534141  -0.027180732215 0.03498296  0.00088552  0.0424949 0.0000
  4  -5226.3027305138  -0.005177099700 0.01127645  0.00030904  0.0051269 0.0000
                      *** Initiating the SOSCF procedure ***
                           *** Shutting down DIIS ***
                      *** Re-Reading the Fockian *** 
                      *** Removing any level shift *** 
ITER      Energy       Delta-E        Grad      Rot      Max-DP    RMS-DP
  5  -5226.30293811  -0.0002075958  0.000820  0.000820  0.002100  0.000078
               *** Restarting incremental Fock matrix formation ***
  6  -5226.30295531  -0.0000171958  0.000412  0.001252  0.001425  0.000057
  7  -5226.30295743  -0.0000021205  0.000257  0.000230  0.000888  0.000021
  8  -5226.30295902  -0.0000015920  0.000024  0.000031  0.000123  0.000004
  9  -5226.30295899   0.0000000248  0.000015  0.000011  0.000060  0.000002
 10  -5226.30295901  -0.0000000183  0.000003  0.000011  0.000008  0.000000
 11  -5226.30295905  -0.0000000393  0.000003  0.000005  0.000006  0.000000
                  ***Gradient check signals convergence***
              ***Rediagonalizing the Fockian in SOSCF/NRSCF***

               *****************************************************
               *                     SUCCESS                       *
               *           SCF CONVERGED AFTER  12 CYCLES          *
               *****************************************************

Setting up the final grid:

General Integration Accuracy     IntAcc      ...  4.670
Radial Grid Type                 RadialGrid  ... Gauss-Chebyshev
Angular Grid (max. acc.)         AngularGrid ... Lebedev-302
Angular grid pruning method      GridPruning ... 3 (G Style)
Weight generation scheme         WeightScheme... Becke
Basis function cutoff            BFCut       ...    1.0000e-11
Integration weight cutoff        WCut        ...    1.0000e-14
Grids for H and He will be reduced by one unit

# of grid points (after initial pruning)     ...  48626 (   0.0 sec)
# of grid points (after weights+screening)   ...  46565 (   0.0 sec)
nearest neighbour list constructed           ...    0.0 sec
Grid point re-assignment to atoms done       ...    0.0 sec
Grid point division into batches done        ...    0.2 sec
Reduced shell lists constructed in    0.3 sec

Total number of grid points                  ...    46565
Total number of batches                      ...      732
Average number of points per batch           ...       63
Average number of grid points per atom       ...     5174
Average number of shells per batch           ...    33.35 (65.39%)
Average number of basis functions per batch  ...    73.70 (62.99%)
Average number of large shells per batch     ...    28.10 (84.27%)
Average number of large basis fcns per batch ...    60.43 (82.00%)
Maximum spatial batch extension              ...  14.74, 16.33, 16.15 au
Average spatial batch extension              ...   0.63,  0.59,  0.62 au

Final grid set up in    0.3 sec
Final integration                            ... done (   0.1 sec)
Change in XC energy                          ...     0.000956142
Integrated number of electrons               ...    88.000048340
Previous integrated no of electrons          ...    88.004486633
Old exchange energy                            =    -47.881001955 Eh
New exchange energy                            =    -47.880799936 Eh
Exchange energy change after final integration =      0.000202019 Eh
Total energy after final integration           =  -5226.301800860 Eh
Final COS-X integration done in                =     0.607 sec

----------------
TOTAL SCF ENERGY
----------------

Total Energy       :        -5226.30180086 Eh         -142214.90207 eV

Components:
Nuclear Repulsion  :          395.08958160 Eh           10750.93408 eV
Electronic Energy  :        -5621.39138246 Eh         -152965.83615 eV
One Electron Energy:        -8077.77993663 Eh         -219807.56688 eV
Two Electron Energy:         2456.38855417 Eh           66841.73073 eV
CPCM Dielectric    :           -0.08457275 Eh              -2.30134 eV

Virial components:
Potential Energy   :       -10446.60638093 Eh         -284266.61146 eV
Kinetic Energy     :         5220.30458007 Eh          142051.70939 eV
Virial Ratio       :            2.00114883


DFT components:
N(Alpha)           :       44.000024170163 electrons
N(Beta)            :       44.000024170163 electrons
N(Total)           :       88.000048340325 electrons
E(X)               :     -143.043323974569 Eh       
E(C)               :       -4.010624984068 Eh       
E(XC)              :     -147.053948958637 Eh       
DFET-embed. en.    :        0.000000000000 Eh       
CPCM Solvation Model Properties:
Surface-charge          :            0.97716383
Charge-correction       :           -0.00317754 Eh              -0.08647 eV
Free-energy (cav+disp)  :            0.00362246 Eh               0.09857 eV
Corrected G(solv)       :        -5226.30135594 Eh         -142214.88996 eV

---------------
SCF CONVERGENCE
---------------

  Last Energy change         ...    2.9770e-08  Tolerance :   1.0000e-08
  Last MAX-Density change    ...    5.3291e-15  Tolerance :   1.0000e-07
  Last RMS-Density change    ...    1.1305e-16  Tolerance :   5.0000e-09
  Last Orbital Gradient      ...    8.5972e-07  Tolerance :   1.0000e-05
  Last Orbital Rotation      ...    5.2857e-07  Tolerance :   1.0000e-05

             **** THE GBW FILE WAS UPDATED (manual_328.gbw) ****
             **** DENSITY FILE WAS UPDATED (manual_328.scfp) ****
             **** ENERGY FILE WAS UPDATED (manual_328.en.tmp) ****
             **** THE GBW FILE WAS UPDATED (manual_328.gbw) ****
             **** DENSITY FILE WAS UPDATED (manual_328.scfp) ****
----------------
ORBITAL ENERGIES
----------------

  NO   OCC          E(Eh)            E(eV) 
   0   2.0000    -483.106673    -13146.0009 
   1   2.0000    -483.103326    -13145.9098 
   2   2.0000     -62.542362     -1701.8642 
   3   2.0000     -62.538902     -1701.7700 
   4   2.0000     -56.330863     -1532.8407 
   5   2.0000     -56.329755     -1532.8105 
   6   2.0000     -56.329664     -1532.8081 
   7   2.0000     -56.327292     -1532.7435 
   8   2.0000     -56.326427     -1532.7200 
   9   2.0000     -56.326288     -1532.7162 
  10   2.0000     -10.288834      -279.9734 
  11   2.0000     -10.221852      -278.1507 
  12   2.0000      -8.686526      -236.3724 
  13   2.0000      -8.682806      -236.2712 
  14   2.0000      -6.496194      -176.7704 
  15   2.0000      -6.492190      -176.6615 
  16   2.0000      -6.491100      -176.6318 
  17   2.0000      -6.491015      -176.6295 
  18   2.0000      -6.487523      -176.5345 
  19   2.0000      -6.487434      -176.5320 
  20   2.0000      -2.582485       -70.2730 
  21   2.0000      -2.581109       -70.2355 
  22   2.0000      -2.581031       -70.2334 
  23   2.0000      -2.578499       -70.1645 
  24   2.0000      -2.577228       -70.1299 
  25   2.0000      -2.577138       -70.1275 
  26   2.0000      -2.576963       -70.1227 
  27   2.0000      -2.576945       -70.1222 
  28   2.0000      -2.573446       -70.0270 
  29   2.0000      -2.573440       -70.0269 
  30   2.0000      -0.784280       -21.3413 
  31   2.0000      -0.697798       -18.9881 
  32   2.0000      -0.687511       -18.7081 
  33   2.0000      -0.609547       -16.5866 
  34   2.0000      -0.469946       -12.7879 
  35   2.0000      -0.423605       -11.5269 
  36   2.0000      -0.409434       -11.1413 
  37   2.0000      -0.366770        -9.9803 
  38   2.0000      -0.294475        -8.0131 
  39   2.0000      -0.247870        -6.7449 
  40   2.0000      -0.245417        -6.6781 
  41   2.0000      -0.240356        -6.5404 
  42   2.0000      -0.239461        -6.5161 
  43   2.0000      -0.222875        -6.0647 
  44   0.0000      -0.019640        -0.5344 
  45   0.0000       0.095469         2.5978 
  46   0.0000       0.129691         3.5291 
  47   0.0000       0.133807         3.6411 
  48   0.0000       0.176191         4.7944 
  49   0.0000       0.195148         5.3102 
  50   0.0000       0.247129         6.7247 
  51   0.0000       0.371200        10.1009 
  52   0.0000       0.403012        10.9665 
  53   0.0000       0.415075        11.2948 
  54   0.0000       0.420852        11.4520 
  55   0.0000       0.462576        12.5873 
  56   0.0000       0.521942        14.2028 
  57   0.0000       0.557230        15.1630 
  58   0.0000       0.563808        15.3420 
  59   0.0000       0.576088        15.6761 
  60   0.0000       0.582293        15.8450 
  61   0.0000       0.595716        16.2103 
  62   0.0000       0.599582        16.3155 
  63   0.0000       0.603616        16.4252 
  64   0.0000       0.605415        16.4742 
  65   0.0000       0.626016        17.0348 
  66   0.0000       0.635554        17.2943 
  67   0.0000       0.653333        17.7781 
  68   0.0000       0.682603        18.5746 
  69   0.0000       0.696109        18.9421 
  70   0.0000       0.707749        19.2588 
  71   0.0000       0.718651        19.5555 
  72   0.0000       0.732272        19.9261 
  73   0.0000       0.733427        19.9576 
  74   0.0000       0.736015        20.0280 
  75   0.0000       0.755905        20.5692 
  76   0.0000       0.788011        21.4429 
  77   0.0000       0.801048        21.7976 
  78   0.0000       0.829139        22.5620 
  79   0.0000       0.984691        26.7948 
  80   0.0000       1.099304        29.9136 
  81   0.0000       1.186633        32.2899 
  82   0.0000       1.254935        34.1485 
  83   0.0000       1.270568        34.5739 
  84   0.0000       1.331890        36.2426 
  85   0.0000       1.552785        42.2534 
  86   0.0000       1.626063        44.2474 
  87   0.0000       1.694823        46.1185 
  88   0.0000       1.706412        46.4338 
  89   0.0000       1.778986        48.4087 
  90   0.0000       1.794917        48.8422 
  91   0.0000       1.814231        49.3677 
  92   0.0000       1.850264        50.3483 
  93   0.0000       2.007207        54.6189 
  94   0.0000       2.068135        56.2768 
  95   0.0000       2.123865        57.7933 
  96   0.0000       2.204753        59.9944 
  97   0.0000       2.246819        61.1391 
  98   0.0000       2.277756        61.9809 
  99   0.0000       2.478998        67.4570 
 100   0.0000       2.551274        69.4237 
 101   0.0000       2.560602        69.6775 
 102   0.0000       2.803637        76.2908 
 103   0.0000       2.886324        78.5409 
 104   0.0000       2.924645        79.5836 
 105   0.0000       3.010668        81.9244 
 106   0.0000       3.076852        83.7254 
 107   0.0000       3.526961        95.9735 
 108   0.0000       3.528955        96.0277 
 109   0.0000       3.531979        96.1100 
 110   0.0000       3.537633        96.2639 
 111   0.0000       3.544387        96.4477 
 112   0.0000       3.575133        97.2843 
 113   0.0000       3.583792        97.5199 
 114   0.0000       3.601990        98.0151 
 115   0.0000       3.697676       100.6189 
 116   0.0000       3.832479       104.2870 

                    ********************************
                    * MULLIKEN POPULATION ANALYSIS *
                    ********************************

-----------------------
MULLIKEN ATOMIC CHARGES
-----------------------
   0 C :   -0.051814
   1 C :   -0.078164
   2 Br:   -0.667460
   3 H :    0.068925
   4 H :    0.060155
   5 H :    0.059076
   6 H :    0.123476
   7 H :    0.123406
   8 Br:   -0.637600
Sum of atomic charges:   -1.0000000

--------------------------------
MULLIKEN REDUCED ORBITAL CHARGES
--------------------------------
  0 C s       :     3.024383  s :     3.024383
      pz      :     1.004193  p :     3.000363
      px      :     0.960251
      py      :     1.035920
      dz2     :     0.006788  d :     0.027068
      dxz     :     0.005832
      dyz     :     0.003241
      dx2y2   :     0.003492
      dxy     :     0.007715
  1 C s       :     3.254515  s :     3.254515
      pz      :     1.053238  p :     2.792311
      px      :     1.001126
      py      :     0.737947
      dz2     :     0.009665  d :     0.031338
      dxz     :     0.006291
      dyz     :     0.002589
      dx2y2   :     0.006447
      dxy     :     0.006346
  2 Brs       :     7.987487  s :     7.987487
      pz      :     5.989034  p :    17.671414
      px      :     5.920650
      py      :     5.761730
      dz2     :     2.001384  d :    10.008559
      dxz     :     2.000411
      dyz     :     2.001163
      dx2y2   :     2.002844
      dxy     :     2.002757
  3 H s       :     0.905282  s :     0.905282
      pz      :     0.005008  p :     0.025793
      px      :     0.008564
      py      :     0.012220
  4 H s       :     0.915897  s :     0.915897
      pz      :     0.013452  p :     0.023948
      px      :     0.004924
      py      :     0.005572
  5 H s       :     0.916755  s :     0.916755
      pz      :     0.006135  p :     0.024169
      px      :     0.006361
      py      :     0.011673
  6 H s       :     0.852224  s :     0.852224
      pz      :     0.016271  p :     0.024299
      px      :     0.003740
      py      :     0.004288
  7 H s       :     0.852093  s :     0.852093
      pz      :     0.005951  p :     0.024502
      px      :     0.012334
      py      :     0.006216
  8 Brs       :     7.986755  s :     7.986755
      pz      :     5.981059  p :    17.637945
      px      :     5.965662
      py      :     5.691224
      dz2     :     2.001692  d :    10.012900
      dxz     :     2.000570
      dyz     :     2.002652
      dx2y2   :     2.004485
      dxy     :     2.003501


                     *******************************
                     * LOEWDIN POPULATION ANALYSIS *
                     *******************************

----------------------
LOEWDIN ATOMIC CHARGES
----------------------
   0 C :   -0.099539
   1 C :    0.021872
   2 Br:   -0.566984
   3 H :    0.032235
   4 H :    0.038609
   5 H :    0.036823
   6 H :    0.028903
   7 H :    0.026520
   8 Br:   -0.518439

-------------------------------
LOEWDIN REDUCED ORBITAL CHARGES
-------------------------------
  0 C s       :     2.846880  s :     2.846880
      pz      :     1.058490  p :     3.180963
      px      :     1.039817
      py      :     1.082656
      dz2     :     0.017516  d :     0.071696
      dxz     :     0.016349
      dyz     :     0.008250
      dx2y2   :     0.008983
      dxy     :     0.020597
  1 C s       :     2.977304  s :     2.977304
      pz      :     1.097740  p :     2.931870
      px      :     1.044980
      py      :     0.789150
      dz2     :     0.021918  d :     0.068954
      dxz     :     0.016211
      dyz     :     0.005319
      dx2y2   :     0.013365
      dxy     :     0.012141
  2 Brs       :     7.950867  s :     7.950867
      pz      :     5.981263  p :    17.606597
      px      :     5.902807
      py      :     5.722528
      dz2     :     2.001645  d :    10.009519
      dxz     :     2.000364
      dyz     :     2.001094
      dx2y2   :     2.003238
      dxy     :     2.003178
  3 H s       :     0.896189  s :     0.896189
      pz      :     0.012962  p :     0.071576
      px      :     0.024489
      py      :     0.034125
  4 H s       :     0.894683  s :     0.894683
      pz      :     0.037996  p :     0.066708
      px      :     0.013878
      py      :     0.014834
  5 H s       :     0.895958  s :     0.895958
      pz      :     0.016951  p :     0.067219
      px      :     0.018154
      py      :     0.032114
  6 H s       :     0.893116  s :     0.893116
      pz      :     0.051251  p :     0.077981
      px      :     0.012473
      py      :     0.014257
  7 H s       :     0.894645  s :     0.894645
      pz      :     0.018810  p :     0.078835
      px      :     0.039282
      py      :     0.020743
  8 Brs       :     7.939278  s :     7.939278
      pz      :     5.969654  p :    17.565203
      px      :     5.950543
      py      :     5.645006
      dz2     :     2.001902  d :    10.013958
      dxz     :     2.000604
      dyz     :     2.002623
      dx2y2   :     2.005183
      dxy     :     2.003646


                      *****************************
                      * MAYER POPULATION ANALYSIS *
                      *****************************

  NA   - Mulliken gross atomic population
  ZA   - Total nuclear charge
  QA   - Mulliken gross atomic charge
  VA   - Mayer's total valence
  BVA  - Mayer's bonded valence
  FA   - Mayer's free valence

  ATOM       NA         ZA         QA         VA         BVA        FA
  0 C      6.0518     6.0000    -0.0518     3.9087     3.9087    -0.0000
  1 C      6.0782     6.0000    -0.0782     3.8757     3.8757    -0.0000
  2 Br    35.6675    35.0000    -0.6675     0.5762     0.5762     0.0000
  3 H      0.9311     1.0000     0.0689     1.0198     1.0198     0.0000
  4 H      0.9398     1.0000     0.0602     0.9942     0.9942     0.0000
  5 H      0.9409     1.0000     0.0591     0.9976     0.9976     0.0000
  6 H      0.8765     1.0000     0.1235     0.9815     0.9815     0.0000
  7 H      0.8766     1.0000     0.1234     0.9823     0.9823    -0.0000
  8 Br    35.6376    35.0000    -0.6376     0.6345     0.6345    -0.0000

  Mayer bond orders larger than 0.100000
B(  0-C ,  1-C ) :   1.0785 B(  0-C ,  3-H ) :   0.9455 B(  0-C ,  4-H ) :   0.9652 
B(  0-C ,  5-H ) :   0.9601 B(  1-C ,  2-Br) :   0.4095 B(  1-C ,  6-H ) :   0.9520 
B(  1-C ,  7-H ) :   0.9529 B(  1-C ,  8-Br) :   0.4636 B(  2-Br,  8-Br) :   0.1042 



------------------
HIRSHFELD ANALYSIS
------------------

Total integrated alpha density =     44.002243317
Total integrated beta density  =     44.002243317

  ATOM     CHARGE      SPIN    
   0 C   -0.084012    0.000000
   1 C    0.053257    0.000000
   2 Br  -0.590825    0.000000
   3 H    0.024251    0.000000
   4 H    0.033376    0.000000
   5 H    0.030532    0.000000
   6 H    0.038545    0.000000
   7 H    0.037187    0.000000
   8 Br  -0.546798    0.000000

  TOTAL  -1.004487    0.000000

-------
TIMINGS
-------

Total SCF time: 0 days 0 hours 0 min 9 sec 

Total time                  ....       9.291 sec
Sum of individual times     ....       9.063 sec  ( 97.5%)

Fock matrix formation       ....       8.343 sec  ( 89.8%)
  Split-RI-J                ....       1.466 sec  ( 17.6% of F)
  Chain of spheres X        ....       3.989 sec  ( 47.8% of F)
  COS-X 1 center corr.      ....       0.000 sec  (  0.0% of F)
  XC integration            ....       0.416 sec  (  5.0% of F)
    Basis function eval.    ....       0.164 sec  ( 39.4% of XC)
    Density eval.           ....       0.067 sec  ( 16.1% of XC)
    XC-Functional eval.     ....       0.046 sec  ( 11.0% of XC)
    XC-Potential eval.      ....       0.099 sec  ( 23.8% of XC)
Diagonalization             ....       0.011 sec  (  0.1%)
Density matrix formation    ....       0.003 sec  (  0.0%)
Population analysis         ....       0.045 sec  (  0.5%)
Initial guess               ....       0.138 sec  (  1.5%)
Orbital Transformation      ....       0.000 sec  (  0.0%)
Orbital Orthonormalization  ....       0.000 sec  (  0.0%)
DIIS solution               ....       0.004 sec  (  0.0%)
SOSCF solution              ....       0.007 sec  (  0.1%)
Grid generation             ....       0.512 sec  (  5.5%)


-------------------------------------------------------------------------------
                          DFT DISPERSION CORRECTION                            
                                                                               
                              DFTD3 V3.1  Rev 1                                
                          USING Becke-Johnson damping                          
-------------------------------------------------------------------------------
The PBE0 functional is recognized
Active option DFTDOPT                   ...         4   

molecular C6(AA) [au] = 1870.779853 


            DFT-D V3
 parameters
 s6 scaling factor         :     1.0000 
 a1 scaling factor         :     0.4145 
 s8 scaling factor         :     1.2177 
 a2 scaling factor         :     4.8593 
 ad hoc parameters k1-k3   :    16.0000     1.3333    -4.0000 

 Edisp/kcal,au: -4.282681248852  -0.006824886267 
 E6   /kcal   :  -2.497906711 
 E8   /kcal   :  -1.784774538 
 % E8         :  41.674232438 

-------------------------   ----------------
Dispersion correction           -0.006824886
-------------------------   ----------------


-------------------------   --------------------
FINAL SINGLE POINT ENERGY     -5226.308625746348
-------------------------   --------------------

[1631208304.523199] [comp0806:236269:0]            sys.c:618  UCX  ERROR shmget(size=2097152 flags=0xfb0) for mm_recv_desc failed: Operation not permitted, please check shared memory limits by 'ipcs -l'
[1631208304.525365] [comp0806:236267:0]            sys.c:618  UCX  ERROR shmget(size=2097152 flags=0xfb0) for mm_recv_desc failed: Operation not permitted, please check shared memory limits by 'ipcs -l'
[1631208304.525911] [comp0806:236266:0]            sys.c:618  UCX  ERROR shmget(size=2097152 flags=0xfb0) for mm_recv_desc failed: Operation not permitted, please check shared memory limits by 'ipcs -l'
[1631208304.525904] [comp0806:236268:0]            sys.c:618  UCX  ERROR shmget(size=2097152 flags=0xfb0) for mm_recv_desc failed: Operation not permitted, please check shared memory limits by 'ipcs -l'
[1631208304.534794] [comp0806:236269:0]            sys.c:618  UCX  ERROR shmget(size=2097152 flags=0xb80) for ucp_am_bufs failed: Operation not permitted, please check shared memory limits by 'ipcs -l'
[1631208304.535546] [comp0806:236268:0]            sys.c:618  UCX  ERROR shmget(size=2097152 flags=0xb80) for ucp_am_bufs failed: Operation not permitted, please check shared memory limits by 'ipcs -l'


           ************************************************************
           *        Program running with 4 parallel MPI-processes     *
           *              working on a common directory               *
           ************************************************************
[1631208304.538813] [comp0806:236267:0]            sys.c:618  UCX  ERROR shmget(size=2097152 flags=0xb80) for ucp_am_bufs failed: Operation not permitted, please check shared memory limits by 'ipcs -l'
------------------------------------------------------------------------------
                         ORCA SCF GRADIENT CALCULATION
------------------------------------------------------------------------------

Gradient of the Kohn-Sham DFT energy:
Kohn-Sham wavefunction type      ... RKS
Hartree-Fock exchange scaling    ...    0.250
Number of operators              ...    1
Number of atoms                  ...    9
Basis set dimensions             ...  117
Integral neglect threshold       ... 2.5e-11
Integral primitive cutoff        ... 2.5e-12

Nuclear repulsion gradient       ... done
One Electron Gradient            ... done
Pre-screening matrix             ... done
RI-J gradient                    ... done
COSX-gradient                    ... done
Exchange-correlation gradient    ... done
Dispersion correction            ... done

------------------
CARTESIAN GRADIENT
------------------

   1   C   :    0.002160419   -0.002078261   -0.001018433
   2   C   :   -0.000553737    0.003014372    0.001182762
   3   Br  :   -0.001557644   -0.003327898   -0.000146103
   4   H   :    0.001392795   -0.002606046   -0.001263699
   5   H   :    0.000200363   -0.000475698    0.000246649
   6   H   :   -0.000229944   -0.000419255    0.000342904
   7   H   :   -0.001588639   -0.003729369   -0.000788492
   8   H   :   -0.001191313   -0.004319170   -0.000437728
   9   Br  :    0.001732809    0.014063139    0.002865005

Difference to translation invariance:
           :    0.0003651084    0.0001218152    0.0009828655

Norm of the cartesian gradient     ...    0.0170775462
RMS gradient                       ...    0.0032865753
MAX gradient                       ...    0.0140631394

-------
TIMINGS
-------

Total SCF gradient time            ...        1.622 sec

One electron gradient       ....       0.013 sec  (  0.8%)
Prescreening matrices       ....       0.108 sec  (  6.7%)
RI-J Coulomb gradient       ....       0.151 sec  (  9.3%)
COSX gradient               ....       0.564 sec  ( 34.8%)
XC gradient                 ....       0.342 sec  ( 21.1%)
CPCM gradient               ....       0.163 sec  ( 10.1%)
   A-Matrix (El+Nuc)        ....       0.002 sec  (  0.2%)
   Potential                ....       0.161 sec  (  9.9%)
[1631208306.186759] [comp0806:236266:0]            sys.c:618  UCX  ERROR shmget(size=2097152 flags=0xb80) for ucp_am_bufs failed: Operation not permitted, please check shared memory limits by 'ipcs -l'
[1631208309.206289] [comp0806:236288:0]            sys.c:618  UCX  ERROR shmget(size=2097152 flags=0xfb0) for mm_recv_desc failed: Operation not permitted, please check shared memory limits by 'ipcs -l'
[1631208309.208268] [comp0806:236290:0]            sys.c:618  UCX  ERROR shmget(size=2097152 flags=0xfb0) for mm_recv_desc failed: Operation not permitted, please check shared memory limits by 'ipcs -l'
[1631208309.217775] [comp0806:236292:0]            sys.c:618  UCX  ERROR shmget(size=2097152 flags=0xfb0) for mm_recv_desc failed: Operation not permitted, please check shared memory limits by 'ipcs -l'
[1631208309.229970] [comp0806:236289:0]            sys.c:618  UCX  ERROR shmget(size=2097152 flags=0xfb0) for mm_recv_desc failed: Operation not permitted, please check shared memory limits by 'ipcs -l'
[1631208309.238369] [comp0806:236288:0]            sys.c:618  UCX  ERROR shmget(size=2097152 flags=0xb80) for ucp_am_bufs failed: Operation not permitted, please check shared memory limits by 'ipcs -l'
[1631208309.239084] [comp0806:236289:0]            sys.c:618  UCX  ERROR shmget(size=2097152 flags=0xb80) for ucp_am_bufs failed: Operation not permitted, please check shared memory limits by 'ipcs -l'


           ************************************************************
           *        Program running with 4 parallel MPI-processes     *
           *              working on a common directory               *
           ************************************************************
[1631208309.259923] [comp0806:236290:0]            sys.c:618  UCX  ERROR shmget(size=2097152 flags=0xb80) for ucp_am_bufs failed: Operation not permitted, please check shared memory limits by 'ipcs -l'

-------------------------------------------------------------------------------
                               ORCA SCF HESSIAN
-------------------------------------------------------------------------------

Hessian of the Kohn-Sham DFT energy:
Kohn-Sham wavefunction type                      ... RKS
Hartree-Fock exchange scaling                    ...    0.250
Number of operators                              ...    1
Number of atoms                                  ...    9
Basis set dimensions                             ...  117
Integral neglect threshold                       ... 2.5e-11
Integral primitive cutoff                        ... 2.5e-12

Setting up DFT Hessian calculations              ... 
Electron density on the grid                     ... found on disk
Electron density on the final grid               ... found on disk
Building xc-kernel on the grid                   ... done   (      0.0 sec)
Building xc-kernel on the final grid             ... done   (      0.0 sec)
[1631208309.302218] [comp0806:236292:0]            sys.c:618  UCX  ERROR shmget(size=2097152 flags=0xb80) for ucp_am_bufs failed: Operation not permitted, please check shared memory limits by 'ipcs -l'
                                                     done   (      0.1 sec)

Nuclear repulsion Hessian                        ... done   (      0.0 sec)

----------------------------------------------
Forming right-hand sides of CP-SCF equations     ...
----------------------------------------------
One electron integral derivatives                ... done   (      2.7 sec)
Transforming the overlap derivative matrices     ... done   (      0.0 sec)
Adding tr(S(x)F(y) C-PCM term to the hessian     ... done   (      0.4 sec)
Making the Q(x) pseudodensities                  ... done   (      0.0 sec)
Adding the E*S(x)*S(y) terms to the Hessian      ... done   (      0.0 sec)
Calculating energy weighted overlap derivatives  ... done   (      0.0 sec)
Two electron integral derivatives (RI)           ... done   (      1.8 sec)
Exchange-correlation integral derivatives        ... done   (      3.0 sec)
tr(F(y)Q(x)) contribution to the Hessian         ... done   (      0.0 sec)
Response fock operator R(S(x)) (RIJCOSX)         ... done   (      1.9 sec)
XC Response fock operator R(S(x))                ... done   (      0.9 sec)
tr(F(y)S(x)) contribution to the Hessian         ... done   (      0.0 sec)
Transforming and finalizing RHSs                 ... done   (      0.0 sec)

----------------------------------------------
Solving the CP-SCF equations (RIJCOSX)           ...
----------------------------------------------
     CP-SCF ITERATION   0: 
     CP-SCF ITERATION   1:      0.000993718422
     CP-SCF ITERATION   2:      0.000142084984
     CP-SCF ITERATION   3:      0.000010170531
     CP-SCF ITERATION   4:      0.000000230174
     CP-SCF ITERATION   5:      0.000000010990
     CP-SCF ITERATION   6:      0.000000008998

                                                 ... done   (     10.6 sec)
Forming perturbed density Hessian contributions  ... done   (      0.0 sec)
Calculating [Q*(d^2 A/dXdY)*Q  ] C-PCM term      ... done   (      0.0 sec)
Calculating [d^2(V_N)/(dXdY)*Q ] C-PCM term      ... done   (      0.0 sec)
Calculating [d^2(V_el)/(dXdY)*Q] C-PCM term      ... done   (      0.3 sec)
Calculating C-PCM term that depends on dQ/dX     ... done   (      0.0 sec)
2nd integral derivative contribs (RI)            ... done   (      8.7 sec)
Exchange-correlation Hessian                     ... done   (      3.1 sec)
Dispersion correction in the Hessian             ... done   (      0.5 sec)
Dipol derivatives                                ... done   (      0.1 sec)

Total SCF Hessian time: 0 days 0 hours 0 min 35 sec 

Writing the Hessian file to the disk             ... done


Maximum memory used throughout the entire calculation: 136.7 MB

-----------------------
VIBRATIONAL FREQUENCIES
-----------------------

Scaling factor for frequencies =  1.000000000  (already applied!)

   0:         0.00 cm**-1
   1:         0.00 cm**-1
   2:         0.00 cm**-1
   3:         0.00 cm**-1
   4:         0.00 cm**-1
   5:         0.00 cm**-1
   6:      -419.90 cm**-1 ***imaginary mode***
   7:        42.80 cm**-1
   8:       124.39 cm**-1
   9:       161.03 cm**-1
  10:       184.08 cm**-1
  11:       311.61 cm**-1
  12:       801.54 cm**-1
  13:       952.67 cm**-1
  14:       976.85 cm**-1
  15:      1013.20 cm**-1
  16:      1073.87 cm**-1
  17:      1172.78 cm**-1
  18:      1354.62 cm**-1
  19:      1419.09 cm**-1
  20:      1436.31 cm**-1
  21:      1441.86 cm**-1
  22:      3072.05 cm**-1
  23:      3171.84 cm**-1
  24:      3182.27 cm**-1
  25:      3254.25 cm**-1
  26:      3387.99 cm**-1


------------
NORMAL MODES
------------

These modes are the Cartesian displacements weighted by the diagonal matrix
M(i,i)=1/sqrt(m[i]) where m[i] is the mass of the displaced atom
Thus, these vectors are normalized but *not* orthogonal

                  0          1          2          3          4          5    
      0       0.000000   0.000000   0.000000   0.000000   0.000000   0.000000
      1       0.000000   0.000000   0.000000   0.000000   0.000000   0.000000
      2       0.000000   0.000000   0.000000   0.000000   0.000000   0.000000
      3       0.000000   0.000000   0.000000   0.000000   0.000000   0.000000
      4       0.000000   0.000000   0.000000   0.000000   0.000000   0.000000
      5       0.000000   0.000000   0.000000   0.000000   0.000000   0.000000
      6       0.000000   0.000000   0.000000   0.000000   0.000000   0.000000
      7       0.000000   0.000000   0.000000   0.000000   0.000000   0.000000
      8       0.000000   0.000000   0.000000   0.000000   0.000000   0.000000
      9       0.000000   0.000000   0.000000   0.000000   0.000000   0.000000
     10       0.000000   0.000000   0.000000   0.000000   0.000000   0.000000
     11       0.000000   0.000000   0.000000   0.000000   0.000000   0.000000
     12       0.000000   0.000000   0.000000   0.000000   0.000000   0.000000
     13       0.000000   0.000000   0.000000   0.000000   0.000000   0.000000
     14       0.000000   0.000000   0.000000   0.000000   0.000000   0.000000
     15       0.000000   0.000000   0.000000   0.000000   0.000000   0.000000
     16       0.000000   0.000000   0.000000   0.000000   0.000000   0.000000
     17       0.000000   0.000000   0.000000   0.000000   0.000000   0.000000
     18       0.000000   0.000000   0.000000   0.000000   0.000000   0.000000
     19       0.000000   0.000000   0.000000   0.000000   0.000000   0.000000
     20       0.000000   0.000000   0.000000   0.000000   0.000000   0.000000
     21       0.000000   0.000000   0.000000   0.000000   0.000000   0.000000
     22       0.000000   0.000000   0.000000   0.000000   0.000000   0.000000
     23       0.000000   0.000000   0.000000   0.000000   0.000000   0.000000
     24       0.000000   0.000000   0.000000   0.000000   0.000000   0.000000
     25       0.000000   0.000000   0.000000   0.000000   0.000000   0.000000
     26       0.000000   0.000000   0.000000   0.000000   0.000000   0.000000
                  6          7          8          9         10         11    
      0       0.043193  -0.010365  -0.302553  -0.304343   0.019429  -0.088066
      1       0.148875  -0.021262   0.041439   0.005707  -0.015482  -0.336938
      2       0.019610   0.002395   0.181489   0.173573  -0.014555  -0.051495
      3       0.263209  -0.038278  -0.269780  -0.247839   0.187573   0.069695
      4       0.760703   0.032608   0.076447   0.067373  -0.086104   0.070652
      5       0.080462  -0.062156   0.208080   0.252958   0.260547  -0.023590
      6      -0.035842   0.003428  -0.011681   0.103105  -0.021180   0.025118
      7      -0.062362  -0.001405  -0.195393   0.121189   0.002330   0.015793
      8       0.001145   0.000681  -0.053808  -0.030343  -0.024071  -0.008367
      9       0.371628  -0.244033  -0.252797  -0.253467  -0.133921   0.179416
     10      -0.125042   0.161466  -0.001860  -0.044217   0.104487  -0.550594
     11      -0.205233  -0.466730   0.192088   0.063707  -0.354150  -0.135566
     12      -0.135193  -0.058454  -0.336698  -0.413875  -0.245058  -0.214650
     13       0.075519  -0.571154   0.083421  -0.039857  -0.222064  -0.325890
     14       0.089825   0.146321   0.181943   0.215240   0.109877  -0.016890
     15      -0.231131   0.273383  -0.351588  -0.327685   0.301928  -0.353197
     16       0.037483   0.318197  -0.002757  -0.016066   0.140479  -0.467760
     17       0.110016   0.343516   0.147662   0.155109  -0.031712  -0.008465
     18      -0.041872  -0.128785  -0.243509  -0.199097   0.416909   0.066188
     19      -0.030057   0.048103   0.108499   0.048316  -0.138843   0.044907
     20       0.028254  -0.061625   0.216993   0.252306   0.259043  -0.025900
     21      -0.075509   0.000302  -0.277753  -0.277620   0.082415   0.056075
     22      -0.077568   0.032201   0.114535   0.057711  -0.100567   0.040916
     23       0.017577  -0.143711   0.242025   0.306904   0.471291  -0.021225
     24      -0.008804   0.005872   0.116165  -0.001531  -0.015265  -0.018999
     25      -0.072861  -0.000159   0.173864  -0.132249   0.015672   0.040112
     26      -0.016698   0.010601  -0.017127  -0.046306  -0.018640   0.022279
                 12         13         14         15         16         17    
      0      -0.019348   0.003028   0.057435   0.067203  -0.183580   0.067050
      1       0.010260   0.007544   0.052802   0.097721   0.116589  -0.034366
      2      -0.024194  -0.005714  -0.015918  -0.009346   0.126749   0.136376
      3      -0.023172  -0.003300  -0.042905  -0.046378   0.209600  -0.051989
      4       0.011895  -0.000138  -0.027730  -0.048486  -0.092182   0.028809
      5      -0.046711   0.000700   0.015531   0.012916  -0.134916  -0.119076
      6      -0.000218   0.001487   0.001188  -0.002757   0.000212  -0.000013
      7       0.000237  -0.000000   0.005786  -0.005803   0.000884  -0.000138
      8      -0.000554   0.002377   0.000600  -0.000202   0.000138   0.000223
      9       0.037839   0.038432   0.319628   0.436481  -0.046148  -0.107073
     10      -0.031846  -0.022067  -0.174897  -0.222962  -0.012737   0.098652
     11       0.181724  -0.018402  -0.232670  -0.301915   0.071434  -0.281846
     12       0.394277   0.058452  -0.114985  -0.190485  -0.410139  -0.421332
     13      -0.195175  -0.035616  -0.147675  -0.201183   0.017882   0.239678
     14      -0.088885  -0.013691   0.076556   0.129688   0.226640   0.205066
     15      -0.193950  -0.071431  -0.200264  -0.338367  -0.450893   0.200727
     16       0.103847   0.002760  -0.086064  -0.111940   0.063889  -0.192689
     17       0.369880   0.065800   0.021311   0.059738   0.308653  -0.342726
     18       0.536263  -0.196058  -0.233197   0.121030   0.249562   0.406265
     19      -0.063647  -0.759120  -0.418535   0.426261  -0.175698  -0.150082
     20      -0.060156  -0.048201  -0.006411   0.047122  -0.159833  -0.143584
     21      -0.291861   0.177377  -0.299867   0.140902   0.282922  -0.258328
     22      -0.045418   0.561666  -0.628734   0.449524  -0.189135   0.076801
     23       0.437550   0.138904  -0.010944   0.071090  -0.318661   0.323505
     24       0.000522  -0.001532   0.003297  -0.002513   0.000603   0.000016
     25      -0.000638   0.002071   0.008813  -0.005884  -0.000821   0.000060
     26       0.000614  -0.003193   0.001378  -0.000407  -0.000528   0.000199
                 18         19         20         21         22         23    
      0      -0.109462  -0.047179   0.021994  -0.033866   0.041690   0.034299
      1       0.021394  -0.012512  -0.034571   0.047170  -0.008015   0.084258
      2       0.068242   0.016144   0.020507   0.056606  -0.028322   0.018896
      3      -0.022949   0.077736  -0.003223   0.061478  -0.001435   0.001332
      4       0.001235  -0.033776  -0.008297  -0.009455   0.000400   0.000760
      5       0.009998  -0.060942   0.026650  -0.024857   0.001060  -0.001070
      6       0.000144   0.000017  -0.000059  -0.000081  -0.000016   0.000029
      7      -0.000028   0.000210  -0.000021   0.000116   0.000016  -0.000014
      8      -0.000091   0.000079  -0.000128   0.000036   0.000010  -0.000013
      9       0.375816   0.196495  -0.224715  -0.213209  -0.384427  -0.501612
     10      -0.379164  -0.212020   0.159765   0.181049  -0.474309  -0.605150
     11      -0.326343  -0.120899  -0.590018  -0.130801   0.006614   0.015019
     12       0.434900  -0.018693   0.281766   0.434502   0.159868  -0.117549
     13       0.052953   0.289667   0.479398  -0.403339   0.125456  -0.088482
     14      -0.098525  -0.057934  -0.183534   0.019743   0.536125  -0.415673
     15       0.395300   0.199323  -0.352916  -0.219715  -0.246829   0.200371
     16       0.139704   0.222561  -0.104561  -0.341059   0.429730  -0.328224
     17      -0.265791   0.187136   0.282972  -0.491281  -0.224122   0.175647
     18       0.260582  -0.530087   0.023812  -0.261662   0.000841   0.001181
     19      -0.094223   0.221306   0.014793   0.106789  -0.000412  -0.000959
     20      -0.008346  -0.032647   0.030208  -0.011100   0.004024   0.011146
     21       0.101072  -0.197401   0.049929  -0.060042  -0.004159  -0.003693
     22      -0.015631   0.045982  -0.033700  -0.000936   0.002052   0.002642
     23      -0.235347   0.551605  -0.095847   0.228416  -0.002383  -0.002671
     24      -0.000016  -0.000190   0.000039  -0.000031  -0.000047  -0.000070
     25       0.000365  -0.000411  -0.000041  -0.000014   0.000088   0.000104
     26       0.000117   0.000003   0.000056   0.000049   0.000048   0.000065
                  24         25         26    
      0      -0.042823   0.003967  -0.001228
      1       0.034158  -0.000082   0.000736
      2      -0.076937  -0.001309  -0.002590
      3       0.001458  -0.049023  -0.053188
      4      -0.000649   0.017211   0.027220
      5       0.003156   0.039367  -0.083769
      6       0.000030  -0.000013   0.000071
      7      -0.000003  -0.000186  -0.000054
      8       0.000009  -0.000055   0.000122
      9      -0.004446  -0.007224   0.002141
     10       0.007095  -0.008144   0.001628
     11      -0.010535   0.000409  -0.000058
     12       0.184773  -0.002384   0.004355
     13       0.158532  -0.002613   0.005847
     14       0.640189  -0.007755   0.025909
     15       0.328584  -0.001607   0.013100
     16      -0.574576   0.000658  -0.018196
     17       0.287057  -0.000937   0.007864
     18      -0.002504  -0.017714   0.010107
     19       0.000269   0.054552  -0.046123
     20      -0.028920  -0.730556   0.670778
     21      -0.015632   0.559169   0.607554
     22       0.009826  -0.247972  -0.270281
     23      -0.009027   0.290476   0.306206
     24      -0.000003   0.000097   0.000070
     25      -0.000003   0.000178  -0.000021
     26      -0.000004  -0.000010   0.000109


-----------
IR SPECTRUM
-----------

 Mode    freq (cm**-1)   T**2         TX         TY         TZ
-------------------------------------------------------------------
   7:        42.80    2.569447  ( -0.400569   1.229568  -0.947182)
   8:       124.39    3.719495  ( -1.640202  -0.052345   1.013159)
   9:       161.03   10.601532  ( -2.556199   0.564587   1.936135)
  10:       184.08    6.729162  (  1.760439  -0.455687   1.849964)
  11:       311.61   29.149912  (  2.421133   4.824502   0.110511)
  12:       801.54    7.610828  (  1.378421  -0.892402   2.216845)
  13:       952.67    0.818109  (  0.395949   0.676585   0.451184)
  14:       976.85   10.386103  (  0.129825   3.132173   0.747491)
  15:      1013.20  260.466234  ( -6.005279 -14.939411  -1.103109)
  16:      1073.87   17.685081  (  1.716121  -3.423755  -1.737213)
  17:      1172.78    1.654439  ( -0.784539   0.149670  -1.008235)
  18:      1354.62   24.815202  (  4.405732  -0.780811  -2.189762)
[...]
M(i,i)=1/sqrt(m[i]) where m[i] is the mass of the displaced atom
Thus, these vectors are normalized but *not* orthogonal

                  0          1          2          3          4          5    
      0       0.000000   0.000000   0.000000   0.000000   0.000000   0.000000
      1       0.000000   0.000000   0.000000   0.000000   0.000000   0.000000
      2       0.000000   0.000000   0.000000   0.000000   0.000000   0.000000
      3       0.000000   0.000000   0.000000   0.000000   0.000000   0.000000
      4       0.000000   0.000000   0.000000   0.000000   0.000000   0.000000
      5       0.000000   0.000000   0.000000   0.000000   0.000000   0.000000
      6       0.000000   0.000000   0.000000   0.000000   0.000000   0.000000
      7       0.000000   0.000000   0.000000   0.000000   0.000000   0.000000
      8       0.000000   0.000000   0.000000   0.000000   0.000000   0.000000
      9       0.000000   0.000000   0.000000   0.000000   0.000000   0.000000
     10       0.000000   0.000000   0.000000   0.000000   0.000000   0.000000
     11       0.000000   0.000000   0.000000   0.000000   0.000000   0.000000
     12       0.000000   0.000000   0.000000   0.000000   0.000000   0.000000
     13       0.000000   0.000000   0.000000   0.000000   0.000000   0.000000
     14       0.000000   0.000000   0.000000   0.000000   0.000000   0.000000
     15       0.000000   0.000000   0.000000   0.000000   0.000000   0.000000
     16       0.000000   0.000000   0.000000   0.000000   0.000000   0.000000
     17       0.000000   0.000000   0.000000   0.000000   0.000000   0.000000
     18       0.000000   0.000000   0.000000   0.000000   0.000000   0.000000
     19       0.000000   0.000000   0.000000   0.000000   0.000000   0.000000
     20       0.000000   0.000000   0.000000   0.000000   0.000000   0.000000
     21       0.000000   0.000000   0.000000   0.000000   0.000000   0.000000
     22       0.000000   0.000000   0.000000   0.000000   0.000000   0.000000
     23       0.000000   0.000000   0.000000   0.000000   0.000000   0.000000
     24       0.000000   0.000000   0.000000   0.000000   0.000000   0.000000
     25       0.000000   0.000000   0.000000   0.000000   0.000000   0.000000
     26       0.000000   0.000000   0.000000   0.000000   0.000000   0.000000
                  6          7          8          9         10         11    
      0      -0.055658  -0.020970  -0.272348  -0.289196  -0.040125  -0.091078
      1      -0.169178  -0.065982   0.086687   0.087995   0.010640  -0.287032
      2      -0.002499  -0.001775   0.163789   0.177326   0.031072  -0.005693
      3      -0.235664   0.015334  -0.246024  -0.231432  -0.243005   0.023061
      4      -0.731333   0.043400   0.075575   0.070902   0.084807   0.070643
      5      -0.013776   0.002469   0.184092   0.285642  -0.283435   0.001571
      6       0.037516   0.002643  -0.056928   0.070134   0.028198   0.028415
      7       0.063276   0.002101  -0.338781   0.055116   0.000464   0.016241
      8      -0.008024  -0.006610  -0.037566  -0.040229   0.022100  -0.010870
      9      -0.349532  -0.137135  -0.267786  -0.267260  -0.103415   0.165245
     10       0.175955   0.260627   0.079953   0.086134   0.032064  -0.637806
     11       0.085060  -0.438936   0.163163   0.098488   0.179031   0.052663
     12      -0.056725  -0.201869  -0.291103  -0.401560   0.223586  -0.042128
     13      -0.162986  -0.623717   0.100573   0.122599  -0.081269  -0.143018
     14      -0.001538  -0.017830   0.169613   0.201535  -0.029888  -0.001833
     15       0.387941   0.258213  -0.272274  -0.272999  -0.094811  -0.505426
     16      -0.059019   0.106977   0.085091   0.080611   0.028455  -0.416708
     17      -0.080651   0.450780   0.152078   0.102032   0.189820  -0.076448
     18      -0.030854   0.015810  -0.231382  -0.149406  -0.519584   0.019906
     19      -0.088838   0.035975   0.069625   0.043798   0.173847   0.062619
     20      -0.000846   0.002216   0.190992   0.283122  -0.272463   0.001418
     21       0.022246   0.007726  -0.269453  -0.267244  -0.135848   0.017247
     22       0.082406   0.022952   0.078936   0.080607   0.054340   0.051697
     23       0.003024   0.004561   0.214772   0.372387  -0.552482   0.000748
     24       0.006617  -0.001074   0.151657   0.025268   0.022312  -0.013836
     25       0.072756   0.003782   0.309164  -0.084222  -0.017429   0.029954
     26       0.010407   0.006496  -0.025965  -0.042709   0.021968   0.011786
                 12         13         14         15         16         17    
      0       0.032050  -0.000538   0.013308  -0.039825   0.226617   0.051694
      1      -0.010196  -0.004483   0.046861  -0.129649  -0.067907  -0.019811
      2       0.019478   0.000262   0.001689  -0.003525  -0.106559   0.148757
      3       0.014653   0.004328  -0.005233   0.022955  -0.241071  -0.029542
      4      -0.006268   0.013065  -0.019566   0.076277   0.073592   0.012266
      5       0.051884   0.001097  -0.001175   0.002551   0.116518  -0.135535
      6      -0.000631   0.001430   0.002356   0.001854  -0.000942  -0.000197
      7      -0.000476  -0.001246   0.007581   0.004230  -0.001172  -0.000214
      8       0.000071   0.002737   0.000317  -0.000204   0.000180   0.000325
      9       0.125879   0.001156   0.184972  -0.427483   0.281882   0.067941
     10      -0.000841   0.007650  -0.133198   0.293866  -0.051557   0.130441
     11      -0.318658  -0.022645  -0.123785   0.230333  -0.297482  -0.300391
     12      -0.426471  -0.000565  -0.044192   0.090937   0.288786  -0.512301
     13       0.130445   0.025879  -0.141909   0.294175  -0.095112   0.155900
     14       0.119234   0.003084  -0.004420   0.009953  -0.137260   0.273550
     15       0.099472   0.008354  -0.233702   0.524744   0.243944  -0.022218
     16      -0.056669   0.003639  -0.002990  -0.005428  -0.108074  -0.128446
     17      -0.314131   0.011326   0.127406  -0.231593  -0.290184  -0.305186
     18      -0.514429  -0.232175  -0.189666  -0.096081  -0.158068   0.435007
     19       0.176696  -0.690837  -0.602867  -0.292768   0.043765  -0.135410
     20       0.084081  -0.012354  -0.012961  -0.004606   0.129342  -0.170005
     21       0.219476   0.210494  -0.198567  -0.112178  -0.405111  -0.214430
     22      -0.076506   0.650124  -0.630576  -0.348621   0.113831   0.062161
     23      -0.443066   0.004558  -0.014016  -0.005486   0.444492   0.292433
     24      -0.000131  -0.001839   0.002500   0.000935  -0.000057  -0.000030
     25       0.000767   0.000000   0.007385   0.004535   0.001543   0.000280
     26       0.000210  -0.002739  -0.000044   0.000368   0.000229   0.000332
                 18         19         20         21         22         23    
      0      -0.109799   0.032687  -0.015184   0.047767   0.041129   0.022502
      1       0.033716  -0.011021  -0.049410  -0.011846  -0.016258   0.088848
      2       0.065300   0.006165  -0.003078  -0.070781  -0.025905  -0.011147
      3      -0.020925  -0.067117  -0.006494  -0.071950  -0.001334   0.000278
      4       0.006970   0.019816  -0.014499   0.023024   0.000345   0.000938
      5      -0.001091   0.067261  -0.000146   0.026020   0.001094   0.000639
      6       0.000033  -0.000113  -0.000081   0.000073  -0.000057   0.000078
      7      -0.000069  -0.000273  -0.000084  -0.000057  -0.000019   0.000013
      8      -0.000017  -0.000057  -0.000066  -0.000013   0.000013  -0.000026
      9       0.351275  -0.175693   0.086472   0.133472  -0.422639  -0.507143
     10      -0.419748   0.314883   0.025901  -0.294498  -0.333804  -0.383362
     11      -0.261364  -0.144333  -0.480871   0.378622  -0.135485  -0.160083
     12       0.339668   0.201970   0.204146  -0.528499   0.116299   0.033702
     13      -0.110762  -0.061248   0.675303   0.147851  -0.054183  -0.002460
     14      -0.039262  -0.041138   0.021203   0.069769   0.549319   0.148286
     15       0.537448  -0.325199  -0.042854   0.277143  -0.158394   0.201288
     16       0.145513  -0.142779   0.056062   0.136261   0.575287  -0.690994
     17      -0.249229  -0.152707   0.503013   0.361866  -0.121156   0.143257
     18       0.257846   0.509048   0.018921   0.340468   0.001503  -0.001045
     19      -0.081870  -0.163201   0.031472  -0.109264  -0.000462  -0.001188
     20      -0.026514   0.030825   0.000168  -0.000859   0.002821  -0.005214
     21       0.063677   0.203829  -0.003146   0.052811  -0.004050  -0.000528
     22      -0.016621  -0.052490  -0.011435  -0.011091   0.001155   0.003797
     23      -0.186058  -0.558380  -0.005470  -0.274145  -0.001610  -0.000614
     24       0.000065   0.000066   0.000015   0.000088  -0.000030  -0.000049
     25       0.000052   0.000273  -0.000115   0.000027   0.000039   0.000042
     26      -0.000016  -0.000058   0.000071  -0.000011   0.000009   0.000021
                  24         25         26    
      0       0.051020   0.004223  -0.000925
      1      -0.003552  -0.001322   0.000315
      2       0.079689  -0.000190  -0.002656
      3      -0.000328  -0.045825  -0.060290
      4       0.000330   0.013650   0.020747
      5      -0.004030   0.044328  -0.080256
      6      -0.000033  -0.000032   0.000056
      7      -0.000022  -0.000179  -0.000060
      8       0.000008  -0.000035   0.000098
      9      -0.386266  -0.008267   0.011706
     10      -0.307681  -0.005189   0.006723
     11      -0.112572  -0.002195   0.002056
     12      -0.158059  -0.003071   0.002824
     13       0.075882   0.001517  -0.001746
     14      -0.788126  -0.017108   0.029138
     15      -0.068547  -0.003414   0.005193
     16       0.272345   0.008575  -0.011551
     17      -0.045980  -0.001644   0.001361
     18       0.003962  -0.044664   0.030438
     19      -0.002332   0.029440  -0.022293
     20       0.038210  -0.765199   0.629129
     21       0.009952   0.551339   0.668558
     22      -0.002610  -0.180130  -0.218167
     23       0.004572   0.265375   0.310617
     24      -0.000031   0.000079   0.000079
     25       0.000057   0.000165   0.000011
     26       0.000022  -0.000030   0.000100


-----------
IR SPECTRUM
-----------

 Mode    freq (cm**-1)   T**2         TX         TY         TZ
-------------------------------------------------------------------
   7:        44.70   16.332536  (  1.224350   3.851246   0.037525)
   8:       111.79    0.775730  ( -0.671797   0.216369   0.526881)
   9:       147.77   14.837606  ( -2.891582   0.972199   2.351848)
  10:       176.63    9.422710  ( -2.315422   0.864621  -1.820428)
  11:       298.96   25.308704  (  1.555948   4.783467   0.078592)
  12:       798.94    8.741459  ( -2.067737   0.638577  -2.014483)
  13:       865.37    1.091325  (  0.297809   1.001304   0.004931)
  14:       928.38   50.924119  (  2.233096   6.777212   0.082495)
  15:       996.50  272.832411  (  4.942814  15.756975   0.344577)
  16:      1058.58   20.773459  ( -4.089984   1.182560   1.626973)
  17:      1175.35    2.092188  ( -1.088705   0.401446  -0.863569)
  18:      1348.61   31.408852  (  5.204309  -1.596479  -1.332395)
  19:      1418.87   14.644560  ( -3.640700   1.150380  -0.257852)
  20:      1429.23    1.661348  (  0.418904   1.200407   0.211876)
  21:      1444.25    6.204696  (  1.351784  -0.489125   2.034240)
  22:      3074.23    7.177518  (  1.802846  -0.788039  -1.818312)
  23:      3169.04   13.508726  (  1.057996   3.496390  -0.405744)
  24:      3185.27    6.890006  (  0.471662   0.302658   2.564360)
  25:      3251.85    1.437058  ( -0.964375   0.285867   0.652164)
  26:      3388.20   11.033059  (  1.756112  -0.614901   2.751550)

The first frequency considered to be a vibration is 7
The total number of vibrations considered is 20


--------------------------
THERMOCHEMISTRY AT 298.15K
--------------------------

Temperature         ... 298.15 K
Pressure            ... 1.00 atm
Total Mass          ... 188.86 AMU

Throughout the following assumptions are being made:
  (1) The electronic state is orbitally nondegenerate
  (2) There are no thermally accessible electronically excited states
  (3) Hindered rotations indicated by low frequency modes are not
      treated as such but are treated as vibrations and this may
      cause some error
  (4) All equations used are the standard statistical mechanics
      equations for an ideal gas
  (5) All vibrations are strictly harmonic

freq.      44.70  E(vib)   ...       0.53 
freq.     111.79  E(vib)   ...       0.45 
freq.     147.77  E(vib)   ...       0.41 
freq.     176.63  E(vib)   ...       0.38 
freq.     298.96  E(vib)   ...       0.26 
freq.     798.94  E(vib)   ...       0.05 
freq.     865.37  E(vib)   ...       0.04 
freq.     928.38  E(vib)   ...       0.03 
freq.     996.50  E(vib)   ...       0.02 
freq.    1058.58  E(vib)   ...       0.02 
freq.    1175.35  E(vib)   ...       0.01 
freq.    1348.61  E(vib)   ...       0.01 
freq.    1418.87  E(vib)   ...       0.00 
freq.    1429.23  E(vib)   ...       0.00 
freq.    1444.25  E(vib)   ...       0.00 
freq.    3074.23  E(vib)   ...       0.00 
freq.    3169.04  E(vib)   ...       0.00 
freq.    3185.27  E(vib)   ...       0.00 
freq.    3251.85  E(vib)   ...       0.00 
freq.    3388.20  E(vib)   ...       0.00 

------------
INNER ENERGY
------------

The inner energy is: U= E(el) + E(ZPE) + E(vib) + E(rot) + E(trans)
    E(el)   - is the total energy from the electronic structure calculation
              = E(kin-el) + E(nuc-el) + E(el-el) + E(nuc-nuc)
    E(ZPE)  - the the zero temperature vibrational energy from the frequency calculation
    E(vib)  - the the finite temperature correction to E(ZPE) due to population
              of excited vibrational states
    E(rot)  - is the rotational thermal energy
    E(trans)- is the translational thermal energy

Summary of contributions to the inner energy U:
Electronic energy                ...  -5226.31085752 Eh
Zero point energy                ...      0.06450067 Eh      40.47 kcal/mol
Thermal vibrational correction   ...      0.00352814 Eh       2.21 kcal/mol
Thermal rotational correction    ...      0.00141627 Eh       0.89 kcal/mol
Thermal translational correction ...      0.00141627 Eh       0.89 kcal/mol
-----------------------------------------------------------------------
Total thermal energy                  -5226.23999617 Eh


Summary of corrections to the electronic energy:
(perhaps to be used in another calculation)
Total thermal correction                  0.00636068 Eh       3.99 kcal/mol
Non-thermal (ZPE) correction              0.06450067 Eh      40.47 kcal/mol
-----------------------------------------------------------------------
Total correction                          0.07086135 Eh      44.47 kcal/mol


--------
ENTHALPY
--------

The enthalpy is H = U + kB*T
                kB is Boltzmann's constant
Total free energy                 ...  -5226.23999617 Eh 
Thermal Enthalpy correction       ...      0.00094421 Eh       0.59 kcal/mol
-----------------------------------------------------------------------
Total Enthalpy                    ...  -5226.23905196 Eh


Note: Only C1 symmetry has been detected, increase convergence thresholds 
      if your molecule has a higher symmetry. Symmetry factor of 1.0 is   
      used for the rotational entropy correction. 
 

Note: Rotational entropy computed according to Herzberg 
Infrared and Raman Spectra, Chapter V,1, Van Nostrand Reinhold, 1945 
Point Group:  C1, Symmetry Number:   1  
Rotational constants in cm-1:     0.284770     0.016684     0.015861 

Vibrational entropy computed according to the QRRHO of S. Grimme
Chem.Eur.J. 2012 18 9955


-------
ENTROPY
-------

The entropy contributions are T*S = T*(S(el)+S(vib)+S(rot)+S(trans))
     S(el)   - electronic entropy
     S(vib)  - vibrational entropy
     S(rot)  - rotational entropy
     S(trans)- translational entropy
The entropies will be listed as mutliplied by the temperature to get
units of energy

Electronic entropy                ...      0.00000000 Eh      0.00 kcal/mol
Vibrational entropy               ...      0.00664016 Eh      4.17 kcal/mol
Rotational entropy                ...      0.01399250 Eh      8.78 kcal/mol
Translational entropy             ...      0.01977177 Eh     12.41 kcal/mol
-----------------------------------------------------------------------
Final entropy term                ...      0.04040443 Eh     25.35 kcal/mol

In case the symmetry of your molecule has not been determined correctly
or in case you have a reason to use a different symmetry number we print 
out the resulting rotational entropy values for sn=1,12 :
 --------------------------------------------------------
|  sn= 1 | S(rot)=       0.01399250 Eh      8.78 kcal/mol|
|  sn= 2 | S(rot)=       0.01333804 Eh      8.37 kcal/mol|
|  sn= 3 | S(rot)=       0.01295521 Eh      8.13 kcal/mol|
|  sn= 4 | S(rot)=       0.01268358 Eh      7.96 kcal/mol|
|  sn= 5 | S(rot)=       0.01247290 Eh      7.83 kcal/mol|
|  sn= 6 | S(rot)=       0.01230075 Eh      7.72 kcal/mol|
|  sn= 7 | S(rot)=       0.01215521 Eh      7.63 kcal/mol|
|  sn= 8 | S(rot)=       0.01202913 Eh      7.55 kcal/mol|
|  sn= 9 | S(rot)=       0.01191792 Eh      7.48 kcal/mol|
|  sn=10 | S(rot)=       0.01181844 Eh      7.42 kcal/mol|
|  sn=11 | S(rot)=       0.01172845 Eh      7.36 kcal/mol|
|  sn=12 | S(rot)=       0.01164630 Eh      7.31 kcal/mol|
 --------------------------------------------------------


-------------------
GIBBS FREE ENERGY
-------------------

The Gibbs free energy is G = H - T*S

Total enthalpy                    ...  -5226.23905196 Eh 
Total entropy correction          ...     -0.04040443 Eh    -25.35 kcal/mol
-----------------------------------------------------------------------
Final Gibbs free energy         ...  -5226.27945639 Eh

For completeness - the Gibbs free energy minus the electronic energy
G-E(el)                           ...      0.03140113 Eh     19.70 kcal/mol

[1631208637.608573] [comp0806:239571:0]            sys.c:618  UCX  ERROR shmget(size=2097152 flags=0xfb0) for mm_recv_desc failed: Operation not permitted, please check shared memory limits by 'ipcs -l'
[1631208637.612108] [comp0806:239573:0]            sys.c:618  UCX  ERROR shmget(size=2097152 flags=0xfb0) for mm_recv_desc failed: Operation not permitted, please check shared memory limits by 'ipcs -l'
[1631208637.624710] [comp0806:239572:0]            sys.c:618  UCX  ERROR shmget(size=2097152 flags=0xfb0) for mm_recv_desc failed: Operation not permitted, please check shared memory limits by 'ipcs -l'
[1631208637.633940] [comp0806:239574:0]            sys.c:618  UCX  ERROR shmget(size=2097152 flags=0xfb0) for mm_recv_desc failed: Operation not permitted, please check shared memory limits by 'ipcs -l'
[1631208637.642150] [comp0806:239573:0]            sys.c:618  UCX  ERROR shmget(size=2097152 flags=0xb80) for ucp_am_bufs failed: Operation not permitted, please check shared memory limits by 'ipcs -l'
[1631208637.642169] [comp0806:239571:0]            sys.c:618  UCX  ERROR shmget(size=2097152 flags=0xb80) for ucp_am_bufs failed: Operation not permitted, please check shared memory limits by 'ipcs -l'
[1631208637.648997] [comp0806:239572:0]            sys.c:618  UCX  ERROR shmget(size=2097152 flags=0xb80) for ucp_am_bufs failed: Operation not permitted, please check shared memory limits by 'ipcs -l'

Timings for individual modules:

Sum of individual times         ...      339.902 sec (=   5.665 min)
GTO integral calculation        ...       29.237 sec (=   0.487 min)   8.6 %
SCF iterations                  ...      173.083 sec (=   2.885 min)  50.9 %
SCF Gradient evaluation         ...       61.923 sec (=   1.032 min)  18.2 %
Geometry relaxation             ...        3.470 sec (=   0.058 min)   1.0 %
Analytical frequency calculation...       72.188 sec (=   1.203 min)  21.2 %
                             ****ORCA TERMINATED NORMALLY****
TOTAL RUN TIME: 0 days 0 hours 5 minutes 45 seconds 600 msec
