
                                 *****************
                                 * O   R   C   A *
                                 *****************

           --- An Ab Initio, DFT and Semiempirical electronic structure package ---

                  #######################################################
                  #                        -***-                        #
                  #          Department of theory and spectroscopy      #
                  #               Directorship: Frank Neese             #
                  #        Max Planck Institute fuer Kohlenforschung    #
                  #                Kaiser Wilhelm Platz 1               #
                  #                 D-45470 Muelheim/Ruhr               #
                  #                      Germany                        #
                  #                                                     #
                  #                  All rights reserved                #
                  #                        -***-                        #
                  #######################################################


                         Program Version 4.2.1 -  RELEASE  -


 With contributions from (in alphabetic order):
   Daniel Aravena         : Magnetic Suceptibility
   Michael Atanasov       : Ab Initio Ligand Field Theory (pilot matlab implementation)
   Alexander A. Auer      : GIAO ZORA, VPT2
   Ute Becker             : Parallelization
   Giovanni Bistoni       : ED, misc. LED, open-shell LED, HFLD
   Martin Brehm           : Molecular dynamics
   Dmytro Bykov           : SCF Hessian
   Vijay G. Chilkuri      : MRCI spin determinant printing, contributions to CSF-ICE
   Dipayan Datta          : RHF DLPNO-CCSD density
   Achintya Kumar Dutta   : EOM-CC, STEOM-CC
   Dmitry Ganyushin       : Spin-Orbit,Spin-Spin,Magnetic field MRCI
   Miquel Garcia          : C-PCM Hessian, Gaussian charge scheme
   Yang Guo               : DLPNO-NEVPT2, CIM, IAO-localization
   Andreas Hansen         : Spin unrestricted coupled pair/coupled cluster methods
   Benjamin Helmich-Paris : CASSCF linear response (MC-RPA)
   Lee Huntington         : MR-EOM, pCC
   Robert Izsak           : Overlap fitted RIJCOSX, COSX-SCS-MP3, EOM
   Christian Kollmar      : KDIIS, OOCD, Brueckner-CCSD(T), CCSD density
   Simone Kossmann        : Meta GGA functionals, TD-DFT gradient, OOMP2, MP2 Hessian
   Martin Krupicka        : AUTO-CI
   Lucas Lang             : DCDCAS
   Dagmar Lenk            : GEPOL surface, SMD
   Dimitrios Liakos       : Extrapolation schemes; Compound Job, initial MDCI parallelization
   Dimitrios Manganas     : Further ROCIS development; embedding schemes
   Dimitrios Pantazis     : SARC Basis sets
   Taras Petrenko         : DFT Hessian,TD-DFT gradient, ASA, ECA, R-Raman, ABS, FL, XAS/XES, NRVS
   Peter Pinski           : DLPNO-MP2, DLPNO-MP2 Gradient
   Christoph Reimann      : Effective Core Potentials
   Marius Retegan         : Local ZFS, SOC
   Christoph Riplinger    : Optimizer, TS searches, QM/MM, DLPNO-CCSD(T), (RO)-DLPNO pert. Triples
   Tobias Risthaus        : Range-separated hybrids, TD-DFT gradient, RPA, STAB
   Michael Roemelt        : Original ROCIS implementation
   Masaaki Saitow         : Open-shell DLPNO-CCSD energy and density
   Barbara Sandhoefer     : DKH picture change effects
   Avijit Sen             : IP-ROCIS
   Kantharuban Sivalingam : CASSCF convergence, NEVPT2, FIC-MRCI
   Bernardo de Souza      : ESD, SOC TD-DFT
   Georgi Stoychev        : AutoAux, RI-MP2 NMR
   Willem Van den Heuvel  : Paramagnetic NMR
   Boris Wezisla          : Elementary symmetry handling
   Frank Wennmohs         : Technical directorship


 We gratefully acknowledge several colleagues who have allowed us to
 interface, adapt or use parts of their codes:
   Stefan Grimme, W. Hujo, H. Kruse,             : VdW corrections, initial TS optimization,
                  C. Bannwarth                     DFT functionals, gCP, sTDA/sTD-DF
   Ed Valeev, F. Pavosevic, A. Kumar             : LibInt (2-el integral package), F12 methods
   Garnet Chan, S. Sharma, J. Yang, R. Olivares  : DMRG
   Ulf Ekstrom                                   : XCFun DFT Library
   Mihaly Kallay                                 : mrcc  (arbitrary order and MRCC methods)
   Andreas Klamt, Michael Diedenhofen            : otool_cosmo (COSMO solvation model)
   Jiri Pittner, Ondrej Demel                    : Mk-CCSD
   Frank Weinhold                                : gennbo (NPA and NBO analysis)
   Christopher J. Cramer and Donald G. Truhlar   : smd solvation model
   Lars Goerigk                                  : TD-DFT with DH, B97 family of functionals
   V. Asgeirsson, H. Jonsson                     : NEB implementation
   FAccTs GmbH                                   : IRC, NEB, NEB-TS, Multilevel, MM, QM/MM, CI optimization
   S Lehtola, MJT Oliveira, MAL Marques          : LibXC Library


 Your calculation uses the libint2 library for the computation of 2-el integrals
 For citations please refer to: http://libint.valeyev.net

 Your ORCA version has been built with support for libXC version: 4.2.3
 For citations please refer to: https://tddft.org/programs/libxc/

 This ORCA versions uses:
   CBLAS   interface :  Fast vector & matrix operations
   LAPACKE interface :  Fast linear algebra routines
   SCALAPACK package :  Parallel linear algebra routines


Your calculation utilizes the atom-pairwise dispersion correction
with the Becke-Johnson damping scheme (D3BJ)
Cite in your paper:
S.Grimme, S.Ehrlich, L.Goerigk, J Comput Chem, (2011), 32, 1456–1465 
S.Grimme, J.Antony, S.Ehrlich and H.Krieg, J.Chem.Phys., 132, (2010), 154104 
   

----- Orbital basis set information -----
Your calculation utilizes the basis: def2-SVP
   F. Weigend and R. Ahlrichs, Phys. Chem. Chem. Phys. 7, 3297 (2005).

----- AuxJ basis set information -----
Your calculation utilizes the auxiliary basis: def2/J
   F. Weigend, Phys. Chem. Chem. Phys. 8, 1057 (2006).

================================================================================
                                        WARNINGS
                       Please study these warnings very carefully!
================================================================================


WARNING: Geometry Optimization
  ===> : Switching off AutoStart
         For restart on a previous wavefunction, please use MOREAD

INFO   : the flag for use of LIBINT has been found!

================================================================================
                                       INPUT FILE
================================================================================
NAME = manual_329.inp
|  1> ! OptTS Freq PBE0 RIJCOSX D3BJ def2-SVP def2/J CPCM(Acetone)
|  2> %geom
|  3> modify_internal
|  4> { B 2 11 A } end
|  5> end
|  6> %geom
|  7> modify_internal
|  8> { B 2 3 A } end
|  9> end
| 10> %output 
| 11> xyzfile=True 
| 12> end 
| 13> %scf 
| 14> maxiter 250 
| 15> end
| 16> %output
| 17> Print[P_Hirshfeld] = 1
| 18> end
| 19> % maxcore
| 20> 4000
| 21> %geom
| 22> Calc_Hess true
| 23> Recalc_Hess 30
| 24> Trust -0.1
| 25> MaxIter 150
| 26> end
| 27> %pal nprocs 4
| 28> end
| 29> *xyz -1 1
| 30> C    -2.27100   0.17655  -0.99384
| 31> C    -1.14010  -0.81549  -0.82102
| 32> C    -0.28505  -0.52064   0.37475
| 33> Br    1.41585   0.96472  -0.62508
| 34> H    -2.90643  -0.08084  -1.85456
| 35> H    -2.90047   0.18061  -0.09006
| 36> H    -1.87028   1.19126  -1.14951
| 37> H    -1.53857  -1.83265  -0.68522
| 38> H    -0.49623  -0.84653  -1.71367
| 39> H     0.50886  -1.20099   0.66793
| 40> H    -0.50681   0.30600   1.04068
| 41> Br   -1.66281  -1.71654   2.00427 
| 42> *
| 43> 
| 44>                          ****END OF INPUT****
================================================================================

                       *****************************
                       * Geometry Optimization Run *
                       *****************************

Geometry optimization settings:
Update method            Update   .... Bofill
Choice of coordinates    CoordSys .... Z-matrix Internals
Initial Hessian          InHess   .... Almoef's Model

Convergence Tolerances:
Energy Change            TolE     ....  5.0000e-06 Eh
Max. Gradient            TolMAXG  ....  3.0000e-04 Eh/bohr
RMS Gradient             TolRMSG  ....  1.0000e-04 Eh/bohr
Max. Displacement        TolMAXD  ....  4.0000e-03 bohr
RMS Displacement         TolRMSD  ....  2.0000e-03 bohr
Strict Convergence                ....  False
------------------------------------------------------------------------------
                        ORCA OPTIMIZATION COORDINATE SETUP
------------------------------------------------------------------------------

The optimization will be done in new redundant internal coordinates
Making redundant internal coordinates   ...  (new redundants) Bond  11,  2 is already included
Bond   3,  2 is already included
done
Following TS mode number                ...     0
Evaluating the initial hessian          ...  (Is done on the fly) done
Evaluating the coordinates              ...  done
Calculating the B-matrix                .... done
Calculating the G-matrix                .... done
Diagonalizing the G-matrix              .... done
The first mode is                       ....   70
The number of degrees of freedom        ....   30

    -----------------------------------------------------------------
                    Redundant Internal Coordinates


    -----------------------------------------------------------------
         Definition                    Initial Value    d2E/dq (diagonal element)
    -----------------------------------------------------------------
      1. B(C   1,C   0)                  1.5142         0.000000   
      2. B(C   2,C   1)                  1.4993         0.000000   
      3. B(Br  3,C   2)                  2.4696         0.000000   
      4. B(Br  3,C   1)                  3.1210         0.000000   
      5. B(H   4,C   0)                  1.1004         0.000000   
      6. B(H   5,C   0)                  1.1014         0.000000   
      7. B(H   6,C   0)                  1.1020         0.000000   
      8. B(H   7,C   1)                  1.1008         0.000000   
      9. B(H   8,Br  3)                  2.8499         0.000000   
     10. B(H   8,C   1)                  1.1011         0.000000   
     11. B(H   9,Br  3)                  2.6804         0.000000   
     12. B(H   9,C   2)                  1.0859         0.000000   
     13. B(H  10,Br  3)                  2.6278         0.000000   
     14. B(H  10,C   2)                  1.0844         0.000000   
     15. B(Br 11,H  10)                  2.5210         0.000000   
     16. B(Br 11,H   9)                  2.6015         0.000000   
     17. B(Br 11,H   7)                  2.6949         0.000000   
     18. B(Br 11,H   5)                  3.0850         0.000000   
     19. B(Br 11,C   2)                  2.4462         0.000000   
     20. B(Br 11,C   1)                  3.0112         0.000000   
     21. A(H   4,C   0,H   6)          108.3525         0.000000   
     22. A(H   4,C   0,H   5)          108.2211         0.000000   
     23. A(C   1,C   0,H   6)          110.3520         0.000000   
     24. A(H   5,C   0,H   6)          108.6834         0.000000   
     25. A(C   1,C   0,H   5)          109.6089         0.000000   
     26. A(C   1,C   0,H   4)          111.5491         0.000000   
     27. A(C   2,C   1,Br  3)           51.0016         0.000000   
     28. A(C   0,C   1,Br  3)          104.1881         0.000000   
     29. A(H   7,C   1,H   8)          106.5966         0.000000   
     30. A(C   2,C   1,H   8)          108.5804         0.000000   
     31. A(C   0,C   1,H   8)          111.2643         0.000000   
     32. A(Br  3,C   1,H   7)          144.6609         0.000000   
     33. A(Br  3,C   1,Br 11)          104.7107         0.000000   
     34. A(C   2,C   1,H   7)          106.8433         0.000000   
     35. A(C   2,C   1,Br 11)           53.8100         0.000000   
     36. A(C   0,C   1,H   7)          110.4314         0.000000   
     37. A(H   7,C   1,Br 11)           62.9308         0.000000   
     38. A(H   8,C   1,Br 11)          148.6196         0.000000   
     39. A(C   0,C   1,C   2)          112.8368         0.000000   
     40. A(C   0,C   1,Br 11)           99.9901         0.000000   
     41. A(Br  3,C   1,H   8)           65.6743         0.000000   
     42. A(H   9,C   2,H  10)          117.4722         0.000000   
     43. A(C   1,C   2,Br  3)          100.8461         0.000000   
     44. A(C   1,C   2,H  10)          121.5371         0.000000   
     45. A(C   1,C   2,H   9)          120.6024         0.000000   
     46. A(H  10,C   2,Br 11)           81.2814         0.000000   
     47. A(H   9,C   2,Br 11)           85.7347         0.000000   
     48. A(C   1,C   2,Br 11)           96.5423         0.000000   
     49. A(Br  3,C   2,H   9)           89.0029         0.000000   
     50. A(Br  3,C   2,H  10)           86.0422         0.000000   
     51. A(Br  3,C   2,Br 11)          162.1105         0.000000   
     52. A(C   1,Br  3,C   2)           28.1522         0.000000   
     53. A(C   1,Br 11,C   2)           29.6477         0.000000   
     54. D(Br 11,C   1,C   0,H   5)     -3.2399         0.000000   
     55. D(H   7,C   1,C   0,H   4)    -58.3864         0.000000   
     56. D(H   8,C   1,C   0,H   4)     59.7809         0.000000   
     57. D(Br 11,C   1,C   0,H   6)    116.4202         0.000000   
     58. D(C   2,C   1,C   0,H   4)   -177.8835         0.000000   
     59. D(Br 11,C   1,C   0,H   4)   -123.0791         0.000000   
     60. D(H   8,C   1,C   0,H   6)    -60.7198         0.000000   
     61. D(Br  3,C   1,C   0,H   6)      8.3311         0.000000   
     62. D(Br  3,C   1,C   0,H   5)   -111.3290         0.000000   
     63. D(H   7,C   1,C   0,H   6)   -178.8871         0.000000   
     64. D(C   2,C   1,C   0,H   6)     61.6158         0.000000   
     65. D(Br  3,C   1,C   0,H   4)    128.8318         0.000000   
     66. D(H   7,C   1,C   0,H   5)     61.4528         0.000000   
     67. D(C   2,C   1,C   0,H   5)    -58.0443         0.000000   
     68. D(H   8,C   1,C   0,H   5)    179.6200         0.000000   
     69. D(Br  3,C   2,C   1,C   0)    -90.0696         0.000000   
     70. D(Br 11,C   2,C   1,Br  3)    175.7761         0.000000   
     71. D(Br 11,C   2,C   1,H   8)   -150.4645         0.000000   
     72. D(Br 11,C   2,C   1,C   0)     85.7065         0.000000   
     73. D(H  10,C   2,C   1,Br  3)     92.0129         0.000000   
     74. D(H  10,C   2,C   1,Br 11)    -83.7633         0.000000   
     75. D(H  10,C   2,C   1,H   8)    125.7722         0.000000   
     76. D(H  10,C   2,C   1,H   7)   -119.6068         0.000000   
     77. D(H  10,C   2,C   1,C   0)      1.9432         0.000000   
     78. D(H   9,C   2,C   1,Br  3)    -95.3209         0.000000   
     79. D(Br 11,C   2,C   1,H   7)    -35.8436         0.000000   
     80. D(H   9,C   2,C   1,Br 11)     88.9029         0.000000   
     81. D(H   9,C   2,C   1,H   8)    -61.5615         0.000000   
     82. D(H   9,C   2,C   1,H   7)     53.0594         0.000000   
     83. D(Br  3,C   2,C   1,H   7)    148.3803         0.000000   
     84. D(Br  3,C   2,C   1,Br 11)   -175.7761         0.000000   
     85. D(Br  3,C   2,C   1,H   8)     33.7594         0.000000   
     86. D(H   9,C   2,C   1,C   0)    174.6095         0.000000   
     87. D(C   1,Br  3,C   2,Br 11)   -166.2191         0.000000   
     88. D(C   1,Br  3,C   2,H  10)   -121.3713         0.000000   
     89. D(C   1,Br  3,C   2,H   9)    121.0029         0.000000   
     90. D(C   2,Br  3,C   1,Br 11)      3.5235         0.000000   
     91. D(C   2,Br  3,C   1,H   8)   -144.6856         0.000000   
     92. D(C   2,Br  3,C   1,H   7)    -60.1721         0.000000   
     93. D(C   2,Br  3,C   1,C   0)    108.0825         0.000000   
     94. D(C   1,Br 11,C   2,H  10)    121.0006         0.000000   
     95. D(C   1,Br 11,C   2,H   9)   -120.3502         0.000000   
     96. D(C   2,Br 11,C   1,Br  3)     -3.3928         0.000000   
     97. D(C   2,Br 11,C   1,H   8)     63.8125         0.000000   
     98. D(C   2,Br 11,C   1,H   7)    140.9942         0.000000   
     99. D(C   1,Br 11,C   2,Br  3)    166.3796         0.000000   
    100. D(C   2,Br 11,C   1,C   0)   -111.0644         0.000000   
    -----------------------------------------------------------------

Number of atoms                         .... 12
Number of degrees of freedom            .... 100

         *************************************************************
         *                GEOMETRY OPTIMIZATION CYCLE   1            *
         *************************************************************
---------------------------------
CARTESIAN COORDINATES (ANGSTROEM)
---------------------------------
  C     -2.271000    0.176550   -0.993840
  C     -1.140100   -0.815490   -0.821020
  C     -0.285050   -0.520640    0.374750
  Br     1.415850    0.964720   -0.625080
  H     -2.906430   -0.080840   -1.854560
  H     -2.900470    0.180610   -0.090060
  H     -1.870280    1.191260   -1.149510
  H     -1.538570   -1.832650   -0.685220
  H     -0.496230   -0.846530   -1.713670
  H      0.508860   -1.200990    0.667930
  H     -0.506810    0.306000    1.040680
  Br    -1.662810   -1.716540    2.004270

----------------------------
CARTESIAN COORDINATES (A.U.)
----------------------------
  NO LB      ZA    FRAG     MASS         X           Y           Z
   0 C     6.0000    0    12.011   -4.291568    0.333631   -1.878085
   1 C     6.0000    0    12.011   -2.154477   -1.541053   -1.551503
   2 C     6.0000    0    12.011   -0.538666   -0.983867    0.708175
   3 Br   35.0000    0    79.900    2.675569    1.823057   -1.181230
   4 H     1.0000    0     1.008   -5.492357   -0.152765   -3.504610
   5 H     1.0000    0     1.008   -5.481094    0.341303   -0.170189
   6 H     1.0000    0     1.008   -3.534317    2.251155   -2.172259
   7 H     1.0000    0     1.008   -2.907476   -3.463207   -1.294878
   8 H     1.0000    0     1.008   -0.937739   -1.599710   -3.238367
   9 H     1.0000    0     1.008    0.961606   -2.269542    1.262205
  10 H     1.0000    0     1.008   -0.957732    0.578256    1.966600
  11 Br   35.0000    0    79.900   -3.142256   -3.243790    3.787521

--------------------------------
INTERNAL COORDINATES (ANGSTROEM)
--------------------------------
 C      0   0   0     0.000000000000     0.00000000     0.00000000
 C      1   0   0     1.514247312694     0.00000000     0.00000000
 C      2   1   0     1.499304144562   112.83676250     0.00000000
 Br     3   2   1     2.469618425688   100.84612398   269.93037250
 H      1   2   3     1.100390755777   111.54910746   182.11650006
 H      1   2   3     1.101393323432   109.60889817   301.95566800
 H      1   2   3     1.102019079417   110.35198654    61.61579938
 H      2   1   3     1.100833523518   110.43139332   119.49714255
 H      2   1   3     1.101070425086   111.26428295   237.66436080
 H      3   2   1     1.085874635029   120.60242427   174.60945533
 H      3   2   1     1.084423326981   121.53711628     1.94322252
 Br     3   2   1     2.446167381436    96.54226647    85.70651242

---------------------------
INTERNAL COORDINATES (A.U.)
---------------------------
 C      0   0   0     0.000000000000     0.00000000     0.00000000
 C      1   0   0     2.861512720017     0.00000000     0.00000000
 C      2   1   0     2.833274224675   112.83676250     0.00000000
 Br     3   2   1     4.666902479837   100.84612398   269.93037250
 H      1   2   3     2.079437168718   111.54910746   182.11650006
 H      1   2   3     2.081331747015   109.60889817   301.95566800
 H      1   2   3     2.082514254455   110.35198654    61.61579938
 H      2   1   3     2.080273878488   110.43139332   119.49714255
 H      2   1   3     2.080721557574   111.26428295   237.66436080
 H      3   2   1     2.052005675977   120.60242427   174.60945533
 H      3   2   1     2.049263101229   121.53711628     1.94322252
 Br     3   2   1     4.622586428645    96.54226647    85.70651242

---------------------
BASIS SET INFORMATION
---------------------
There are 3 groups of distinct atoms

 Group   1 Type C   : 7s4p1d contracted to 3s2p1d pattern {511/31/1}
 Group   2 Type Br  : 14s10p6d contracted to 5s4p3d pattern {63311/5311/411}
 Group   3 Type H   : 4s1p contracted to 2s1p pattern {31/1}

Atom   0C    basis set group =>   1
Atom   1C    basis set group =>   1
Atom   2C    basis set group =>   1
Atom   3Br   basis set group =>   2
Atom   4H    basis set group =>   3
Atom   5H    basis set group =>   3
Atom   6H    basis set group =>   3
Atom   7H    basis set group =>   3
Atom   8H    basis set group =>   3
Atom   9H    basis set group =>   3
Atom  10H    basis set group =>   3
Atom  11Br   basis set group =>   2
---------------------------------
AUXILIARY/J BASIS SET INFORMATION
---------------------------------
There are 3 groups of distinct atoms

 Group   1 Type C   : 12s5p4d2f1g contracted to 6s4p3d1f1g pattern {711111/2111/211/2/1}
 Group   2 Type Br  : 19s5p5d3f1g contracted to 8s4p3d2f1g pattern {121111111/2111/311/21/1}
 Group   3 Type H   : 5s2p1d contracted to 3s1p1d pattern {311/2/1}

Atom   0C    basis set group =>   1
Atom   1C    basis set group =>   1
Atom   2C    basis set group =>   1
Atom   3Br   basis set group =>   2
Atom   4H    basis set group =>   3
Atom   5H    basis set group =>   3
Atom   6H    basis set group =>   3
Atom   7H    basis set group =>   3
Atom   8H    basis set group =>   3
Atom   9H    basis set group =>   3
Atom  10H    basis set group =>   3
Atom  11Br   basis set group =>   2
[1631208293.038887] [comp0806:236148:0]            sys.c:618  UCX  ERROR shmget(size=2097152 flags=0xfb0) for mm_recv_desc failed: Operation not permitted, please check shared memory limits by 'ipcs -l'
[1631208293.050763] [comp0806:236151:0]            sys.c:618  UCX  ERROR shmget(size=2097152 flags=0xfb0) for mm_recv_desc failed: Operation not permitted, please check shared memory limits by 'ipcs -l'
[1631208293.062838] [comp0806:236150:0]            sys.c:618  UCX  ERROR shmget(size=2097152 flags=0xfb0) for mm_recv_desc failed: Operation not permitted, please check shared memory limits by 'ipcs -l'
[1631208293.068593] [comp0806:236149:0]            sys.c:618  UCX  ERROR shmget(size=2097152 flags=0xfb0) for mm_recv_desc failed: Operation not permitted, please check shared memory limits by 'ipcs -l'
[1631208293.078997] [comp0806:236150:0]            sys.c:618  UCX  ERROR shmget(size=2097152 flags=0xb80) for ucp_am_bufs failed: Operation not permitted, please check shared memory limits by 'ipcs -l'
[1631208293.079003] [comp0806:236151:0]            sys.c:618  UCX  ERROR shmget(size=2097152 flags=0xb80) for ucp_am_bufs failed: Operation not permitted, please check shared memory limits by 'ipcs -l'
[1631208293.085119] [comp0806:236149:0]            sys.c:618  UCX  ERROR shmget(size=2097152 flags=0xb80) for ucp_am_bufs failed: Operation not permitted, please check shared memory limits by 'ipcs -l'
[1631208293.085953] [comp0806:236148:0]            sys.c:618  UCX  ERROR shmget(size=2097152 flags=0xb80) for ucp_am_bufs failed: Operation not permitted, please check shared memory limits by 'ipcs -l'


           ************************************************************
           *        Program running with 4 parallel MPI-processes     *
           *              working on a common directory               *
           ************************************************************
------------------------------------------------------------------------------
                           ORCA GTO INTEGRAL CALCULATION
                           -- RI-GTO INTEGRALS CHOSEN --
------------------------------------------------------------------------------

                         BASIS SET STATISTICS AND STARTUP INFO

Gaussian basis set:
 # of primitive gaussian shells          ...  131
 # of primitive gaussian functions       ...  269
 # of contracted shells                  ...   63
 # of contracted basis functions         ...  141
 Highest angular momentum                ...    2
 Maximum contraction depth               ...    6
Auxiliary gaussian basis set:
 # of primitive gaussian shells          ...  194
 # of primitive gaussian functions       ...  500
 # of contracted shells                  ...  116
 # of contracted aux-basis functions     ...  340
 Highest angular momentum                ...    4
 Maximum contraction depth               ...   12
Ratio of auxiliary to basis functions    ...  2.41
Integral package used                  ... LIBINT
 One Electron integrals                  ... done
 Ordering auxiliary basis shells         ... done
 Integral threshhold             Thresh  ...  2.500e-11
 Primitive cut-off               TCut    ...  2.500e-12
 Pre-screening matrix                    ... done
 Shell pair data                         ... 
 Ordering of the shell pairs             ... done (   0.000 sec) 1837 of 2016 pairs
 Determination of significant pairs      ... done (   0.000 sec)
 Creation of shell pair data             ... done (   0.000 sec)
 Storage of shell pair data              ... done (   0.014 sec)
 Shell pair data done in (   0.014 sec)
 Computing two index integrals           ... done
 Cholesky decomposition of the V-matrix  ... done


Timings:
 Total evaluation time                   ...   0.215 sec (  0.004 min)
 One electron matrix time                ...   0.029 sec (  0.000 min) = 13.7%
 Schwartz matrix evaluation time         ...   0.133 sec (  0.002 min) = 61.7%
 Two index repulsion integral time       ...   0.003 sec (  0.000 min) =  1.2%
 Cholesky decomposition of V             ...   0.002 sec (  0.000 min) =  0.9%
 Three index repulsion integral time     ...   0.000 sec (  0.000 min) =  0.0%

[1631208294.276555] [comp0806:236223:0]            sys.c:618  UCX  ERROR shmget(size=2097152 flags=0xfb0) for mm_recv_desc failed: Operation not permitted, please check shared memory limits by 'ipcs -l'
[1631208294.277014] [comp0806:236219:0]            sys.c:618  UCX  ERROR shmget(size=2097152 flags=0xfb0) for mm_recv_desc failed: Operation not permitted, please check shared memory limits by 'ipcs -l'
[1631208294.277197] [comp0806:236226:0]            sys.c:618  UCX  ERROR shmget(size=2097152 flags=0xfb0) for mm_recv_desc failed: Operation not permitted, please check shared memory limits by 'ipcs -l'
[1631208294.277246] [comp0806:236216:0]            sys.c:618  UCX  ERROR shmget(size=2097152 flags=0xfb0) for mm_recv_desc failed: Operation not permitted, please check shared memory limits by 'ipcs -l'
[1631208294.284474] [comp0806:236219:0]            sys.c:618  UCX  ERROR shmget(size=2097152 flags=0xb80) for ucp_am_bufs failed: Operation not permitted, please check shared memory limits by 'ipcs -l'
[1631208294.285292] [comp0806:236216:0]            sys.c:618  UCX  ERROR shmget(size=2097152 flags=0xb80) for ucp_am_bufs failed: Operation not permitted, please check shared memory limits by 'ipcs -l'


           ************************************************************
           *        Program running with 4 parallel MPI-processes     *
           *              working on a common directory               *
           ************************************************************
[1631208294.288860] [comp0806:236223:0]            sys.c:618  UCX  ERROR shmget(size=2097152 flags=0xb80) for ucp_am_bufs failed: Operation not permitted, please check shared memory limits by 'ipcs -l'
[1631208294.288900] [comp0806:236226:0]            sys.c:618  UCX  ERROR shmget(size=2097152 flags=0xb80) for ucp_am_bufs failed: Operation not permitted, please check shared memory limits by 'ipcs -l'
-------------------------------------------------------------------------------
                                 ORCA SCF
-------------------------------------------------------------------------------

------------
SCF SETTINGS
------------
Hamiltonian:
 Density Functional     Method          .... DFT(GTOs)
 Exchange Functional    Exchange        .... PBE
   PBE kappa parameter   XKappa         ....  0.804000
   PBE mue parameter    XMuePBE         ....  0.219520
 Correlation Functional Correlation     .... PBE
   PBE beta parameter  CBetaPBE         ....  0.066725
 LDA part of GGA corr.  LDAOpt          .... PW91-LDA
 Gradients option       PostSCFGGA      .... off
 Hybrid DFT is turned on
   Fraction HF Exchange ScalHFX         ....  0.250000
   Scaling of DF-GGA-X  ScalDFX         ....  0.750000
   Scaling of DF-GGA-C  ScalDFC         ....  1.000000
   Scaling of DF-LDA-C  ScalLDAC        ....  1.000000
   Perturbative correction              ....  0.000000
   Density functional embedding theory  .... OFF
   NL short-range parameter             ....  6.900000
 RI-approximation to the Coulomb term is turned on
   Number of auxiliary basis functions  .... 340
   RIJ-COSX (HFX calculated with COS-X)).... on


General Settings:
 Integral files         IntName         .... manual_329
 Hartree-Fock type      HFTyp           .... RHF
 Total Charge           Charge          ....   -1
 Multiplicity           Mult            ....    1
 Number of Electrons    NEL             ....   96
 Basis Dimension        Dim             ....  141
 Nuclear Repulsion      ENuc            ....    511.9019323858 Eh

Convergence Acceleration:
 DIIS                   CNVDIIS         .... on
   Start iteration      DIISMaxIt       ....    12
   Startup error        DIISStart       ....  0.200000
   # of expansion vecs  DIISMaxEq       ....     5
   Bias factor          DIISBfac        ....   1.050
   Max. coefficient     DIISMaxC        ....  10.000
 Newton-Raphson         CNVNR           .... off
 SOSCF                  CNVSOSCF        .... on
   Start iteration      SOSCFMaxIt      ....   150
   Startup grad/error   SOSCFStart      ....  0.003300
 Level Shifting         CNVShift        .... on
   Level shift para.    LevelShift      ....    0.2500
   Turn off err/grad.   ShiftErr        ....    0.0010
 Zerner damping         CNVZerner       .... off
 Static damping         CNVDamp         .... on
   Fraction old density DampFac         ....    0.7000
   Max. Damping (<1)    DampMax         ....    0.9800
   Min. Damping (>=0)   DampMin         ....    0.0000
   Turn off err/grad.   DampErr         ....    0.1000
 Fernandez-Rico         CNVRico         .... off

SCF Procedure:
 Maximum # iterations   MaxIter         ....   250
 SCF integral mode      SCFMode         .... Direct
   Integral package                     .... LIBINT
 Reset frequency        DirectResetFreq ....    20
 Integral Threshold     Thresh          ....  2.500e-11 Eh
 Primitive CutOff       TCut            ....  2.500e-12 Eh

Convergence Tolerance:
 Convergence Check Mode ConvCheckMode   .... Total+1el-Energy
 Convergence forced     ConvForced      .... 0
 Energy Change          TolE            ....  1.000e-08 Eh
 1-El. energy change                    ....  1.000e-05 Eh
 Orbital Gradient       TolG            ....  1.000e-05
 Orbital Rotation angle TolX            ....  1.000e-05
 DIIS Error             TolErr          ....  5.000e-07


Diagonalization of the overlap matrix:
Smallest eigenvalue                        ... 2.588e-03
Time for diagonalization                   ...    0.006 sec
Threshold for overlap eigenvalues          ... 1.000e-08
Number of eigenvalues below threshold      ... 0
Time for construction of square roots      ...    0.002 sec
Total time needed                          ...    0.008 sec

-------------------
DFT GRID GENERATION
-------------------

General Integration Accuracy     IntAcc      ...  4.340
Radial Grid Type                 RadialGrid  ... Gauss-Chebyshev
Angular Grid (max. acc.)         AngularGrid ... Lebedev-110
Angular grid pruning method      GridPruning ... 3 (G Style)
Weight generation scheme         WeightScheme... Becke
Basis function cutoff            BFCut       ...    1.0000e-11
Integration weight cutoff        WCut        ...    1.0000e-14
Grids for H and He will be reduced by one unit

# of grid points (after initial pruning)     ...  16306 (   0.0 sec)
# of grid points (after weights+screening)   ...  15531 (   0.0 sec)
nearest neighbour list constructed           ...    0.0 sec
Grid point re-assignment to atoms done       ...    0.0 sec
Grid point division into batches done        ...    0.0 sec
Reduced shell lists constructed in    0.1 sec

Total number of grid points                  ...    15531
Total number of batches                      ...      248
Average number of points per batch           ...       62
Average number of grid points per atom       ...     1294
Average number of shells per batch           ...    44.79 (71.10%)
Average number of basis functions per batch  ...    96.89 (68.72%)
Average number of large shells per batch     ...    38.21 (85.29%)
Average number of large basis fcns per batch ...    80.27 (82.85%)
Maximum spatial batch extension              ...  16.68, 19.04, 15.85 au
Average spatial batch extension              ...   0.78,  0.85,  0.79 au

Time for grid setup =    0.083 sec

------------------------------
INITIAL GUESS: MODEL POTENTIAL
------------------------------
Loading Hartree-Fock densities                     ... done
Calculating cut-offs                               ... done
Setting up the integral package                    ... done
Initializing the effective Hamiltonian             ... done
Starting the Coulomb interaction                   ... done (   0.0 sec)
Reading the grid                                   ... done
Mapping shells                                     ... done
Starting the XC term evaluation                    ... done (   0.0 sec)
  promolecular density results
     # of electrons  =     94.995688670
     EX              =   -195.893577110
     EC              =     -4.225461511
     EX+EC           =   -200.119038621
Transforming the Hamiltonian                       ... done (   0.0 sec)
Diagonalizing the Hamiltonian                      ... done (   0.0 sec)
Back transforming the eigenvectors                 ... done (   0.0 sec)
Now organizing SCF variables                       ... done
                      ------------------
                      INITIAL GUESS DONE (   0.2 sec)
                      ------------------
--------------------
COSX GRID GENERATION
--------------------

General Integration Accuracy     IntAcc      ...  3.340
Radial Grid Type                 RadialGrid  ... Gauss-Chebyshev
Angular Grid (max. acc.)         AngularGrid ... Lebedev-50
Angular grid pruning method      GridPruning ... 3 (G Style)
Weight generation scheme         WeightScheme... Becke
Basis function cutoff            BFCut       ...    1.0000e-11
Integration weight cutoff        WCut        ...    1.0000e-14
Grids for H and He will be reduced by one unit

# of grid points (after initial pruning)     ...   6064 (   0.0 sec)
# of grid points (after weights+screening)   ...   5763 (   0.0 sec)
nearest neighbour list constructed           ...    0.0 sec
Grid point re-assignment to atoms done       ...    0.0 sec
Grid point division into batches done        ...    0.0 sec
Reduced shell lists constructed in    0.0 sec

Total number of grid points                  ...     5763
Total number of batches                      ...       98
Average number of points per batch           ...       58
Average number of grid points per atom       ...      480
Average number of shells per batch           ...    46.27 (73.44%)
Average number of basis functions per batch  ...   100.73 (71.44%)
Average number of large shells per batch     ...    40.50 (87.53%)
Average number of large basis fcns per batch ...    86.19 (85.57%)
Maximum spatial batch extension              ...  15.71, 16.18, 14.46 au
Average spatial batch extension              ...   1.07,  0.94,  0.95 au

Overlap Fitting                  UseSFitting ... on
Constructing numerical overlap ... done (      0.0 sec)
Inverting numerical overlap    ... done (      0.0 sec)
Obtaining analytic overlap     ... done (      0.0 sec)
Final contraction and storage  ... done (      0.0 sec)


General Integration Accuracy     IntAcc      ...  3.670
Radial Grid Type                 RadialGrid  ... Gauss-Chebyshev
Angular Grid (max. acc.)         AngularGrid ... Lebedev-50
Angular grid pruning method      GridPruning ... 3 (G Style)
Weight generation scheme         WeightScheme... Becke
Basis function cutoff            BFCut       ...    1.0000e-11
Integration weight cutoff        WCut        ...    1.0000e-14
Grids for H and He will be reduced by one unit

# of grid points (after initial pruning)     ...   7582 (   0.0 sec)
# of grid points (after weights+screening)   ...   7181 (   0.0 sec)
nearest neighbour list constructed           ...    0.0 sec
Grid point re-assignment to atoms done       ...    0.0 sec
Grid point division into batches done        ...    0.0 sec
Reduced shell lists constructed in    0.0 sec

Total number of grid points                  ...     7181
Total number of batches                      ...      117
Average number of points per batch           ...       61
Average number of grid points per atom       ...      598
Average number of shells per batch           ...    46.00 (73.02%)
Average number of basis functions per batch  ...    99.87 (70.83%)
Average number of large shells per batch     ...    39.77 (86.47%)
Average number of large basis fcns per batch ...    83.97 (84.08%)
Maximum spatial batch extension              ...  16.03, 16.41, 18.36 au
Average spatial batch extension              ...   0.95,  0.89,  0.92 au

Overlap Fitting                  UseSFitting ... on
Constructing numerical overlap ... done (      0.0 sec)
Inverting numerical overlap    ... done (      0.0 sec)
Obtaining analytic overlap     ... done (      0.0 sec)
Final contraction and storage  ... done (      0.0 sec)


General Integration Accuracy     IntAcc      ...  4.010
Radial Grid Type                 RadialGrid  ... Gauss-Chebyshev
Angular Grid (max. acc.)         AngularGrid ... Lebedev-110
Angular grid pruning method      GridPruning ... 3 (G Style)
Weight generation scheme         WeightScheme... Becke
Basis function cutoff            BFCut       ...    1.0000e-11
Integration weight cutoff        WCut        ...    1.0000e-14
Grids for H and He will be reduced by one unit

# of grid points (after initial pruning)     ...  14244 (   0.0 sec)
# of grid points (after weights+screening)   ...  13587 (   0.0 sec)
nearest neighbour list constructed           ...    0.0 sec
Grid point re-assignment to atoms done       ...    0.0 sec
Grid point division into batches done        ...    0.0 sec
Reduced shell lists constructed in    0.0 sec

Total number of grid points                  ...    13587
Total number of batches                      ...      218
Average number of points per batch           ...       62
Average number of grid points per atom       ...     1132
Average number of shells per batch           ...    45.07 (71.54%)
Average number of basis functions per batch  ...    97.64 (69.25%)
Average number of large shells per batch     ...    38.36 (85.10%)
Average number of large basis fcns per batch ...    80.64 (82.59%)
Maximum spatial batch extension              ...  15.37, 17.49, 15.07 au
Average spatial batch extension              ...   0.83,  0.90,  0.82 au

Overlap Fitting                  UseSFitting ... on
Constructing numerical overlap ... done (      0.0 sec)
Inverting numerical overlap    ... done (      0.0 sec)
Obtaining analytic overlap     ... done (      0.0 sec)
Final contraction and storage  ... done (      0.0 sec)

Time for X-Grid setup             =    0.177 sec

--------------------
CPCM SOLVATION MODEL
--------------------
CPCM parameters:
  Epsilon                                         ...      20.7000
  Refrac                                          ...       1.3590
  Rsolv                                           ...       1.3000
  Surface type                                    ...    GEPOL SES
  Epsilon function type                           ...         CPCM
Radii:
 Radius for C  used is    3.7795 Bohr (=   2.0000 Ang.)
 Radius for Br used is    4.0818 Bohr (=   2.1600 Ang.)
 Radius for H  used is    2.4566 Bohr (=   1.3000 Ang.)
Calculating surface                               ...        done! (  0.0s)
GEPOL surface points                              ...          419
GEPOL Volume                                      ...     985.7004
GEPOL Surface-area                                ...     561.5152
Calculating surface distance matrix               ...        done! (  0.0s)
Performing Cholesky decomposition & store         ...        done! (  0.0s)
Overall time for CPCM initialization              ...                 0.0s
--------------
SCF ITERATIONS
--------------
ITER       Energy         Delta-E        Max-DP      RMS-DP      [F,P]     Damp
               ***  Starting incremental Fock matrix formation  ***
  0  -5265.4235806945   0.000000000000 0.07278176  0.00208038  0.1596413 0.7000
  1  -5265.4739618397  -0.050381145275 0.05940396  0.00158979  0.0855000 0.7000
                               ***Turning on DIIS***
  2  -5265.4973419154  -0.023380075622 0.13094161  0.00312924  0.0342871 0.0000
  3  -5265.5326731953  -0.035331279923 0.03364523  0.00086849  0.0448286 0.0000
  4  -5265.5403548081  -0.007681612817 0.01147906  0.00028585  0.0065909 0.0000
                      *** Initiating the SOSCF procedure ***
                           *** Shutting down DIIS ***
                      *** Re-Reading the Fockian *** 
                      *** Removing any level shift *** 
ITER      Energy       Delta-E        Grad      Rot      Max-DP    RMS-DP
  5  -5265.54065613  -0.0003013182  0.000593  0.000593  0.002027  0.000080
               *** Restarting incremental Fock matrix formation ***
  6  -5265.54067691  -0.0000207887  0.000447  0.001640  0.001271  0.000058
  7  -5265.54067891  -0.0000019984  0.000270  0.000183  0.000897  0.000021
  8  -5265.54068123  -0.0000023206  0.000043  0.000124  0.000228  0.000007
  9  -5265.54068125  -0.0000000119  0.000053  0.000079  0.000127  0.000003
 10  -5265.54068133  -0.0000000827  0.000006  0.000016  0.000046  0.000001
 11  -5265.54068137  -0.0000000402  0.000005  0.000005  0.000022  0.000000
                  ***Gradient check signals convergence***
              ***Rediagonalizing the Fockian in SOSCF/NRSCF***

               *****************************************************
               *                     SUCCESS                       *
               *           SCF CONVERGED AFTER  12 CYCLES          *
               *****************************************************

Setting up the final grid:

General Integration Accuracy     IntAcc      ...  4.670
Radial Grid Type                 RadialGrid  ... Gauss-Chebyshev
Angular Grid (max. acc.)         AngularGrid ... Lebedev-302
Angular grid pruning method      GridPruning ... 3 (G Style)
Weight generation scheme         WeightScheme... Becke
Basis function cutoff            BFCut       ...    1.0000e-11
Integration weight cutoff        WCut        ...    1.0000e-14
Grids for H and He will be reduced by one unit

# of grid points (after initial pruning)     ...  61626 (   0.0 sec)
# of grid points (after weights+screening)   ...  57940 (   0.0 sec)
nearest neighbour list constructed           ...    0.0 sec
Grid point re-assignment to atoms done       ...    0.0 sec
Grid point division into batches done        ...    0.2 sec
Reduced shell lists constructed in    0.3 sec

Total number of grid points                  ...    57940
Total number of batches                      ...      910
Average number of points per batch           ...       63
Average number of grid points per atom       ...     4828
Average number of shells per batch           ...    42.77 (67.89%)
Average number of basis functions per batch  ...    91.90 (65.18%)
Average number of large shells per batch     ...    35.50 (83.00%)
Average number of large basis fcns per batch ...    74.10 (80.63%)
Maximum spatial batch extension              ...  16.38, 17.21, 14.94 au
Average spatial batch extension              ...   0.52,  0.54,  0.53 au

Final grid set up in    0.4 sec
Final integration                            ... done (   0.1 sec)
Change in XC energy                          ...     0.000002197
Integrated number of electrons               ...    96.000021058
Previous integrated no of electrons          ...    96.000206181
Old exchange energy                            =    -49.352748897 Eh
New exchange energy                            =    -49.352794598 Eh
Exchange energy change after final integration =     -0.000045701 Eh
Total energy after final integration           =  -5265.540724818 Eh
Final COS-X integration done in                =     0.880 sec

----------------
TOTAL SCF ENERGY
----------------

Total Energy       :        -5265.54072482 Eh         -143282.64747 eV

Components:
Nuclear Repulsion  :          511.90193239 Eh           13929.55975 eV
Electronic Energy  :        -5777.44265720 Eh         -157212.20722 eV
One Electron Energy:        -8364.04676176 Eh         -227597.28321 eV
Two Electron Energy:         2586.60410456 Eh           70385.07599 eV
CPCM Dielectric    :           -0.08335598 Eh              -2.26823 eV

Virial components:
Potential Energy   :       -10524.59438627 Eh         -286388.77297 eV
Kinetic Energy     :         5259.05366146 Eh          143106.12550 eV
Virial Ratio       :            2.00123350


DFT components:
N(Alpha)           :       48.000010529070 electrons
N(Beta)            :       48.000010529070 electrons
N(Total)           :       96.000021058139 electrons
E(X)               :     -147.431021507692 Eh       
E(C)               :       -4.274711464874 Eh       
E(XC)              :     -151.705732972566 Eh       
DFET-embed. en.    :        0.000000000000 Eh       
CPCM Solvation Model Properties:
Surface-charge          :            0.97508735
Charge-correction       :           -0.00340617 Eh              -0.09269 eV
Free-energy (cav+disp)  :            0.00380004 Eh               0.10340 eV
Corrected G(solv)       :        -5265.54033094 Eh         -143282.63675 eV

---------------
SCF CONVERGENCE
---------------

  Last Energy change         ...    5.5350e-08  Tolerance :   1.0000e-08
  Last MAX-Density change    ...    6.2172e-15  Tolerance :   1.0000e-07
  Last RMS-Density change    ...    1.1500e-16  Tolerance :   5.0000e-09
  Last Orbital Gradient      ...    5.4987e-07  Tolerance :   1.0000e-05
  Last Orbital Rotation      ...    3.7056e-07  Tolerance :   1.0000e-05

             **** THE GBW FILE WAS UPDATED (manual_329.gbw) ****
             **** DENSITY FILE WAS UPDATED (manual_329.scfp) ****
             **** ENERGY FILE WAS UPDATED (manual_329.en.tmp) ****
             **** THE GBW FILE WAS UPDATED (manual_329.gbw) ****
             **** DENSITY FILE WAS UPDATED (manual_329.scfp) ****
----------------
ORBITAL ENERGIES
----------------

  NO   OCC          E(Eh)            E(eV) 
   0   2.0000    -483.105998    -13145.9825 
   1   2.0000    -483.104793    -13145.9497 
   2   2.0000     -62.541521     -1701.8413 
   3   2.0000     -62.540424     -1701.8115 
   4   2.0000     -56.329953     -1532.8159 
   5   2.0000     -56.328994     -1532.7899 
   6   2.0000     -56.328905     -1532.7874 
   7   2.0000     -56.328889     -1532.7870 
   8   2.0000     -56.327858     -1532.7589 
   9   2.0000     -56.327759     -1532.7563 
  10   2.0000     -10.286657      -279.9142 
  11   2.0000     -10.225611      -278.2530 
  12   2.0000     -10.213016      -277.9103 
  13   2.0000      -8.685461      -236.3434 
  14   2.0000      -8.684478      -236.3167 
  15   2.0000      -6.494968      -176.7371 
  16   2.0000      -6.493889      -176.7077 
  17   2.0000      -6.490077      -176.6040 
  18   2.0000      -6.490058      -176.6034 
  19   2.0000      -6.489159      -176.5790 
  20   2.0000      -6.489124      -176.5780 
  21   2.0000      -2.581224       -70.2387 
  22   2.0000      -2.580213       -70.2112 
  23   2.0000      -2.579966       -70.2044 
  24   2.0000      -2.579910       -70.2029 
  25   2.0000      -2.578978       -70.1776 
  26   2.0000      -2.578902       -70.1755 
  27   2.0000      -2.575997       -70.0964 
  28   2.0000      -2.575985       -70.0961 
  29   2.0000      -2.575112       -70.0724 
  30   2.0000      -2.575099       -70.0720 
  31   2.0000      -0.805468       -21.9179 
  32   2.0000      -0.711797       -19.3690 
  33   2.0000      -0.697492       -18.9797 
  34   2.0000      -0.660645       -17.9771 
  35   2.0000      -0.586491       -15.9592 
  36   2.0000      -0.466898       -12.7049 
  37   2.0000      -0.454330       -12.3629 
  38   2.0000      -0.425603       -11.5812 
  39   2.0000      -0.363138        -9.8815 
  40   2.0000      -0.358446        -9.7538 
  41   2.0000      -0.352467        -9.5911 
  42   2.0000      -0.292149        -7.9498 
  43   2.0000      -0.246975        -6.7205 
  44   2.0000      -0.245336        -6.6759 
  45   2.0000      -0.240434        -6.5426 
  46   2.0000      -0.239955        -6.5295 
  47   2.0000      -0.223192        -6.0734 
  48   0.0000      -0.019419        -0.5284 
  49   0.0000       0.091529         2.4906 
  50   0.0000       0.123709         3.3663 
  51   0.0000       0.132127         3.5953 
  52   0.0000       0.149267         4.0618 
  53   0.0000       0.164732         4.4826 
  54   0.0000       0.170021         4.6265 
  55   0.0000       0.185001         5.0341 
  56   0.0000       0.225780         6.1438 
  57   0.0000       0.276497         7.5239 
  58   0.0000       0.381291        10.3755 
  59   0.0000       0.402147        10.9430 
  60   0.0000       0.411649        11.2015 
  61   0.0000       0.435655        11.8548 
  62   0.0000       0.455370        12.3912 
  63   0.0000       0.493838        13.4380 
  64   0.0000       0.515038        14.0149 
  65   0.0000       0.524335        14.2679 
  66   0.0000       0.565979        15.4011 
  67   0.0000       0.571418        15.5491 
  68   0.0000       0.581309        15.8182 
  69   0.0000       0.590875        16.0785 
  70   0.0000       0.598612        16.2891 
  71   0.0000       0.599854        16.3229 
  72   0.0000       0.601193        16.3593 
  73   0.0000       0.609295        16.5798 
  74   0.0000       0.629985        17.1428 
  75   0.0000       0.654427        17.8079 
  76   0.0000       0.656823        17.8731 
  77   0.0000       0.673506        18.3270 
  78   0.0000       0.681880        18.5549 
  79   0.0000       0.701358        19.0849 
  80   0.0000       0.711146        19.3513 
  81   0.0000       0.728678        19.8283 
  82   0.0000       0.731412        19.9027 
  83   0.0000       0.741984        20.1904 
  84   0.0000       0.747905        20.3515 
  85   0.0000       0.752426        20.4745 
  86   0.0000       0.761162        20.7123 
  87   0.0000       0.786904        21.4127 
  88   0.0000       0.812056        22.0972 
  89   0.0000       0.860863        23.4253 
  90   0.0000       0.900439        24.5022 
  91   0.0000       0.969811        26.3899 
  92   0.0000       1.095271        29.8038 
  93   0.0000       1.119203        30.4551 
  94   0.0000       1.197165        32.5765 
  95   0.0000       1.222053        33.2538 
  96   0.0000       1.270118        34.5617 
  97   0.0000       1.303681        35.4750 
  98   0.0000       1.415458        38.5166 
  99   0.0000       1.550799        42.1994 
 100   0.0000       1.553382        42.2697 
 101   0.0000       1.620902        44.1070 
 102   0.0000       1.685673        45.8695 
 103   0.0000       1.711320        46.5674 
 104   0.0000       1.787616        48.6435 
 105   0.0000       1.803036        49.0631 
 106   0.0000       1.821830        49.5745 
 107   0.0000       1.837635        50.0046 
 108   0.0000       1.844527        50.1921 
 109   0.0000       1.915910        52.1346 
 110   0.0000       1.932715        52.5919 
 111   0.0000       1.979396        53.8621 
 112   0.0000       2.005021        54.5594 
 113   0.0000       2.025558        55.1182 
 114   0.0000       2.134295        58.0771 
 115   0.0000       2.210971        60.1636 
 116   0.0000       2.236260        60.8517 
 117   0.0000       2.256977        61.4155 
 118   0.0000       2.402731        65.3816 
 119   0.0000       2.419958        65.8504 
 120   0.0000       2.436403        66.2979 
 121   0.0000       2.545534        69.2675 
 122   0.0000       2.593762        70.5799 
 123   0.0000       2.629311        71.5472 
 124   0.0000       2.806452        76.3675 
 125   0.0000       2.875626        78.2498 
 126   0.0000       2.941867        80.0523 
 127   0.0000       2.971970        80.8714 
 128   0.0000       3.006149        81.8015 
 129   0.0000       3.064364        83.3856 
 130   0.0000       3.097059        84.2753 
 131   0.0000       3.525676        95.9385 
 132   0.0000       3.528902        96.0263 
 133   0.0000       3.540176        96.3331 
 134   0.0000       3.544754        96.4577 
 135   0.0000       3.547066        96.5206 
 136   0.0000       3.594473        97.8106 
 137   0.0000       3.600813        97.9831 
 138   0.0000       3.622245        98.5663 
 139   0.0000       3.708969       100.9262 
 140   0.0000       3.828066       104.1670 

                    ********************************
                    * MULLIKEN POPULATION ANALYSIS *
                    ********************************

-----------------------
MULLIKEN ATOMIC CHARGES
-----------------------
   0 C :   -0.087728
   1 C :   -0.056186
   2 C :   -0.040711
   3 Br:   -0.642993
   4 H :    0.049040
   5 H :    0.037037
   6 H :    0.037579
   7 H :    0.056693
   8 H :    0.056716
   9 H :    0.113489
  10 H :    0.119507
  11 Br:   -0.642443
Sum of atomic charges:   -1.0000000

--------------------------------
MULLIKEN REDUCED ORBITAL CHARGES
--------------------------------
  0 C s       :     3.043361  s :     3.043361
      pz      :     1.026013  p :     3.016720
      px      :     0.991245
      py      :     0.999462
      dz2     :     0.004896  d :     0.027648
      dxz     :     0.008648
      dyz     :     0.001887
      dx2y2   :     0.005991
      dxy     :     0.006226
  1 C s       :     3.046115  s :     3.046115
      pz      :     0.965546  p :     2.973275
      px      :     0.981017
      py      :     1.026713
      dz2     :     0.006796  d :     0.036795
      dxz     :     0.011475
      dyz     :     0.003772
      dx2y2   :     0.007660
      dxy     :     0.007092
  2 C s       :     3.249566  s :     3.249566
      pz      :     0.920286  p :     2.760499
      px      :     0.900181
      py      :     0.940032
      dz2     :     0.005489  d :     0.030646
      dxz     :     0.006926
      dyz     :     0.008018
      dx2y2   :     0.002978
      dxy     :     0.007235
  3 Brs       :     7.986077  s :     7.986077
      pz      :     5.934793  p :    17.647351
      px      :     5.835828
      py      :     5.876729
      dz2     :     2.000690  d :    10.009565
      dxz     :     2.002633
      dyz     :     2.001928
      dx2y2   :     2.001368
      dxy     :     2.002947
  4 H s       :     0.927238  s :     0.927238
      pz      :     0.010912  p :     0.023722
      px      :     0.007753
      py      :     0.005057
  5 H s       :     0.938692  s :     0.938692
      pz      :     0.011913  p :     0.024271
      px      :     0.007617
      py      :     0.004740
  6 H s       :     0.938541  s :     0.938541
      pz      :     0.005240  p :     0.023880
      px      :     0.005845
      py      :     0.012795
  7 H s       :     0.919206  s :     0.919206
      pz      :     0.005208  p :     0.024101
      px      :     0.005816
      py      :     0.013077
  8 H s       :     0.919601  s :     0.919601
      pz      :     0.010891  p :     0.023684
      px      :     0.008110
      py      :     0.004683
  9 H s       :     0.862629  s :     0.862629
      pz      :     0.004756  p :     0.023882
      px      :     0.010379
      py      :     0.008747
 10 H s       :     0.855788  s :     0.855788
      pz      :     0.008790  p :     0.024706
      px      :     0.004544
      py      :     0.011372
 11 Brs       :     7.987358  s :     7.987358
      pz      :     5.848446  p :    17.643269
      px      :     5.886615
      py      :     5.908208
      dz2     :     2.002203  d :    10.011816
      dxz     :     2.003308
      dyz     :     2.002451
      dx2y2   :     2.001478
      dxy     :     2.002376


                     *******************************
                     * LOEWDIN POPULATION ANALYSIS *
                     *******************************

----------------------
LOEWDIN ATOMIC CHARGES
----------------------
   0 C :   -0.074641
   1 C :   -0.079384
   2 C :    0.031194
   3 Br:   -0.543176
   4 H :    0.031545
   5 H :    0.022287
   6 H :    0.024497
   7 H :    0.030203
   8 H :    0.031658
   9 H :    0.029985
  10 H :    0.023161
  11 Br:   -0.527328

-------------------------------
LOEWDIN REDUCED ORBITAL CHARGES
-------------------------------
  0 C s       :     2.842742  s :     2.842742
      pz      :     1.068917  p :     3.160729
      px      :     1.040426
      py      :     1.051386
      dz2     :     0.013125  d :     0.071170
      dxz     :     0.022267
      dyz     :     0.004280
      dx2y2   :     0.014018
      dxy     :     0.017481
  1 C s       :     2.842871  s :     2.842871
      pz      :     1.041073  p :     3.144949
      px      :     1.040893
      py      :     1.062983
      dz2     :     0.017997  d :     0.091564
      dxz     :     0.029846
      dyz     :     0.007654
      dx2y2   :     0.016744
      dxy     :     0.019324
  2 C s       :     2.980241  s :     2.980241
      pz      :     0.975478  p :     2.920005
      px      :     0.950747
      py      :     0.993780
      dz2     :     0.011326  d :     0.068560
      dxz     :     0.015906
      dyz     :     0.018422
      dx2y2   :     0.007112
      dxy     :     0.015795
  3 Brs       :     7.947539  s :     7.947539
      pz      :     5.917227  p :    17.584952
      px      :     5.810526
      py      :     5.857199
      dz2     :     2.000760  d :    10.010685
      dxz     :     2.003040
      dyz     :     2.002231
      dx2y2   :     2.001227
      dxy     :     2.003427
  4 H s       :     0.902606  s :     0.902606
      pz      :     0.029718  p :     0.065849
      px      :     0.021959
      py      :     0.014172
  5 H s       :     0.910283  s :     0.910283
      pz      :     0.032837  p :     0.067430
      px      :     0.021674
      py      :     0.012919
  6 H s       :     0.908990  s :     0.908990
      pz      :     0.013201  p :     0.066513
      px      :     0.016693
      py      :     0.036619
  7 H s       :     0.899659  s :     0.899659
      pz      :     0.014257  p :     0.070138
      px      :     0.017270
      py      :     0.038612
  8 H s       :     0.899623  s :     0.899623
      pz      :     0.031650  p :     0.068719
      px      :     0.023393
      py      :     0.013676
  9 H s       :     0.893004  s :     0.893004
      pz      :     0.015822  p :     0.077011
      px      :     0.033093
      py      :     0.028096
 10 H s       :     0.897229  s :     0.897229
      pz      :     0.029086  p :     0.079610
      px      :     0.015018
      py      :     0.035506
 11 Brs       :     7.942460  s :     7.942460
      pz      :     5.820174  p :    17.572048
      px      :     5.863470
      py      :     5.888403
      dz2     :     2.002113  d :    10.012820
      dxz     :     2.003818
      dyz     :     2.002757
      dx2y2   :     2.001449
      dxy     :     2.002684


                      *****************************
                      * MAYER POPULATION ANALYSIS *
                      *****************************

  NA   - Mulliken gross atomic population
  ZA   - Total nuclear charge
  QA   - Mulliken gross atomic charge
  VA   - Mayer's total valence
  BVA  - Mayer's bonded valence
  FA   - Mayer's free valence

  ATOM       NA         ZA         QA         VA         BVA        FA
  0 C      6.0877     6.0000    -0.0877     3.9796     3.9796    -0.0000
  1 C      6.0562     6.0000    -0.0562     3.9696     3.9696    -0.0000
  2 C      6.0407     6.0000    -0.0407     3.8242     3.8242    -0.0000
  3 Br    35.6430    35.0000    -0.6430     0.6187     0.6187     0.0000
  4 H      0.9510     1.0000     0.0490     0.9816     0.9816    -0.0000
  5 H      0.9630     1.0000     0.0370     1.0094     1.0094    -0.0000
  6 H      0.9624     1.0000     0.0376     0.9999     0.9999    -0.0000
  7 H      0.9433     1.0000     0.0567     1.0043     1.0043    -0.0000
  8 H      0.9433     1.0000     0.0567     1.0009     1.0009     0.0000
  9 H      0.8865     1.0000     0.1135     0.9855     0.9855    -0.0000
 10 H      0.8805     1.0000     0.1195     0.9887     0.9887    -0.0000
 11 Br    35.6424    35.0000    -0.6424     0.6342     0.6342    -0.0000

  Mayer bond orders larger than 0.100000
B(  0-C ,  1-C ) :   1.0781 B(  0-C ,  4-H ) :   0.9695 B(  0-C ,  5-H ) :   0.9674 
B(  0-C ,  6-H ) :   0.9695 B(  1-C ,  2-C ) :   1.0478 B(  1-C ,  7-H ) :   0.9310 
B(  1-C ,  8-H ) :   0.9324 B(  2-C ,  3-Br) :   0.4358 B(  2-C ,  9-H ) :   0.9494 
B(  2-C , 10-H ) :   0.9529 B(  2-C , 11-Br) :   0.4309 B(  3-Br, 11-Br) :   0.1027 



------------------
HIRSHFELD ANALYSIS
------------------

Total integrated alpha density =     48.000103090
Total integrated beta density  =     48.000103090

  ATOM     CHARGE      SPIN    
   0 C   -0.078444    0.000000
   1 C   -0.045453    0.000000
   2 C    0.054323    0.000000
   3 Br  -0.564953    0.000000
   4 H    0.027952    0.000000
   5 H    0.015224    0.000000
   6 H    0.018122    0.000000
   7 H    0.021862    0.000000
   8 H    0.023474    0.000000
   9 H    0.040708    0.000000
  10 H    0.034672    0.000000
  11 Br  -0.547693    0.000000

  TOTAL  -1.000206    0.000000

-------
TIMINGS
-------

Total SCF time: 0 days 0 hours 0 min 12 sec 

Total time                  ....      12.206 sec
Sum of individual times     ....      12.045 sec  ( 98.7%)

Fock matrix formation       ....      11.201 sec  ( 91.8%)
  Split-RI-J                ....       1.759 sec  ( 15.7% of F)
  Chain of spheres X        ....       6.031 sec  ( 53.8% of F)
  COS-X 1 center corr.      ....       0.000 sec  (  0.0% of F)
  XC integration            ....       0.632 sec  (  5.6% of F)
    Basis function eval.    ....       0.250 sec  ( 39.5% of XC)
    Density eval.           ....       0.117 sec  ( 18.5% of XC)
    XC-Functional eval.     ....       0.058 sec  (  9.1% of XC)
    XC-Potential eval.      ....       0.168 sec  ( 26.5% of XC)
Diagonalization             ....       0.016 sec  (  0.1%)
Density matrix formation    ....       0.004 sec  (  0.0%)
Population analysis         ....       0.043 sec  (  0.4%)
Initial guess               ....       0.148 sec  (  1.2%)
Orbital Transformation      ....       0.000 sec  (  0.0%)
Orbital Orthonormalization  ....       0.000 sec  (  0.0%)
DIIS solution               ....       0.005 sec  (  0.0%)
SOSCF solution              ....       0.011 sec  (  0.1%)
Grid generation             ....       0.618 sec  (  5.1%)


-------------------------------------------------------------------------------
                          DFT DISPERSION CORRECTION                            
                                                                               
                              DFTD3 V3.1  Rev 1                                
                          USING Becke-Johnson damping                          
-------------------------------------------------------------------------------
The PBE0 functional is recognized
Active option DFTDOPT                   ...         4   

molecular C6(AA) [au] = 2603.485952 


            DFT-D V3
 parameters
 s6 scaling factor         :     1.0000 
 a1 scaling factor         :     0.4145 
 s8 scaling factor         :     1.2177 
 a2 scaling factor         :     4.8593 
 ad hoc parameters k1-k3   :    16.0000     1.3333    -4.0000 

 Edisp/kcal,au: -6.321180659868  -0.010073441513 
 E6   /kcal   :  -3.760522746 
 E8   /kcal   :  -2.560657914 
 % E8         :  40.509171500 

-------------------------   ----------------
Dispersion correction           -0.010073442
-------------------------   ----------------


-------------------------   --------------------
FINAL SINGLE POINT ENERGY     -5265.550798259304
-------------------------   --------------------

[1631208308.129003] [comp0806:236301:0]            sys.c:618  UCX  ERROR shmget(size=2097152 flags=0xfb0) for mm_recv_desc failed: Operation not permitted, please check shared memory limits by 'ipcs -l'
[1631208308.129241] [comp0806:236303:0]            sys.c:618  UCX  ERROR shmget(size=2097152 flags=0xfb0) for mm_recv_desc failed: Operation not permitted, please check shared memory limits by 'ipcs -l'
[1631208308.164824] [comp0806:236302:0]            sys.c:618  UCX  ERROR shmget(size=2097152 flags=0xfb0) for mm_recv_desc failed: Operation not permitted, please check shared memory limits by 'ipcs -l'
[1631208308.195779] [comp0806:236304:0]            sys.c:618  UCX  ERROR shmget(size=2097152 flags=0xfb0) for mm_recv_desc failed: Operation not permitted, please check shared memory limits by 'ipcs -l'
[1631208308.204055] [comp0806:236301:0]            sys.c:618  UCX  ERROR shmget(size=2097152 flags=0xb80) for ucp_am_bufs failed: Operation not permitted, please check shared memory limits by 'ipcs -l'
[1631208308.204914] [comp0806:236302:0]            sys.c:618  UCX  ERROR shmget(size=2097152 flags=0xb80) for ucp_am_bufs failed: Operation not permitted, please check shared memory limits by 'ipcs -l'


           ************************************************************
           *        Program running with 4 parallel MPI-processes     *
           *              working on a common directory               *
           ************************************************************
[1631208308.212275] [comp0806:236303:0]            sys.c:618  UCX  ERROR shmget(size=2097152 flags=0xb80) for ucp_am_bufs failed: Operation not permitted, please check shared memory limits by 'ipcs -l'
------------------------------------------------------------------------------
                         ORCA SCF GRADIENT CALCULATION
------------------------------------------------------------------------------

Gradient of the Kohn-Sham DFT energy:
Kohn-Sham wavefunction type      ... RKS
Hartree-Fock exchange scaling    ...    0.250
Number of operators              ...    1
Number of atoms                  ...   12
Basis set dimensions             ...  141
Integral neglect threshold       ... 2.5e-11
Integral primitive cutoff        ... 2.5e-12

Nuclear repulsion gradient       ... done
One Electron Gradient            ... done
Pre-screening matrix             ... done
RI-J gradient                    ... done
COSX-gradient                    ... done
Exchange-correlation gradient    ... done
Dispersion correction            ... done

------------------
CARTESIAN GRADIENT
------------------

   1   C   :   -0.000399996    0.000105692    0.000417394
   2   C   :   -0.000190065    0.000302091    0.003627293
   3   C   :    0.001339063    0.001012289   -0.002838647
   4   Br  :   -0.002307363   -0.002132716    0.001499950
   5   H   :    0.000036948    0.000035617    0.000019520
   6   H   :    0.000722127   -0.000548457    0.000344060
   7   H   :    0.000047446    0.000103948   -0.000147007
   8   H   :    0.000219376   -0.000345567    0.002662316
   9   H   :   -0.000076090   -0.000659092    0.000146620
  10   H   :   -0.001662960   -0.001812156    0.001865015
  11   H   :   -0.002537658   -0.002167099    0.002586021
  12   Br  :    0.006260209    0.006892153   -0.010312283

Difference to translation invariance:
           :    0.0014510368    0.0007867040   -0.0001297485

Norm of the cartesian gradient     ...    0.0163006081
RMS gradient                       ...    0.0027167680
MAX gradient                       ...    0.0103122829

-------
TIMINGS
-------

Total SCF gradient time            ...        2.373 sec

One electron gradient       ....       0.021 sec  (  0.9%)
Prescreening matrices       ....       0.110 sec  (  4.6%)
RI-J Coulomb gradient       ....       0.205 sec  (  8.6%)
COSX gradient               ....       0.959 sec  ( 40.4%)
XC gradient                 ....       0.556 sec  ( 23.4%)
CPCM gradient               ....       0.204 sec  (  8.6%)
   A-Matrix (El+Nuc)        ....       0.007 sec  (  0.3%)
   Potential                ....       0.197 sec  (  8.3%)
[1631208310.589722] [comp0806:236304:0]            sys.c:618  UCX  ERROR shmget(size=2097152 flags=0xb80) for ucp_am_bufs failed: Operation not permitted, please check shared memory limits by 'ipcs -l'
[1631208311.754370] [comp0806:236342:0]            sys.c:618  UCX  ERROR shmget(size=2097152 flags=0xfb0) for mm_recv_desc failed: Operation not permitted, please check shared memory limits by 'ipcs -l'
[1631208311.758535] [comp0806:236340:0]            sys.c:618  UCX  ERROR shmget(size=2097152 flags=0xfb0) for mm_recv_desc failed: Operation not permitted, please check shared memory limits by 'ipcs -l'
[1631208311.762958] [comp0806:236341:0]            sys.c:618  UCX  ERROR shmget(size=2097152 flags=0xfb0) for mm_recv_desc failed: Operation not permitted, please check shared memory limits by 'ipcs -l'
[1631208311.763070] [comp0806:236343:0]            sys.c:618  UCX  ERROR shmget(size=2097152 flags=0xfb0) for mm_recv_desc failed: Operation not permitted, please check shared memory limits by 'ipcs -l'
[1631208311.770449] [comp0806:236342:0]            sys.c:618  UCX  ERROR shmget(size=2097152 flags=0xb80) for ucp_am_bufs failed: Operation not permitted, please check shared memory limits by 'ipcs -l'
[1631208311.770469] [comp0806:236340:0]            sys.c:618  UCX  ERROR shmget(size=2097152 flags=0xb80) for ucp_am_bufs failed: Operation not permitted, please check shared memory limits by 'ipcs -l'


           ************************************************************
           *        Program running with 4 parallel MPI-processes     *
           *              working on a common directory               *
           ************************************************************
[1631208311.791005] [comp0806:236341:0]            sys.c:618  UCX  ERROR shmget(size=2097152 flags=0xb80) for ucp_am_bufs failed: Operation not permitted, please check shared memory limits by 'ipcs -l'

-------------------------------------------------------------------------------
                               ORCA SCF HESSIAN
-------------------------------------------------------------------------------

Hessian of the Kohn-Sham DFT energy:
Kohn-Sham wavefunction type                      ... RKS
Hartree-Fock exchange scaling                    ...    0.250
Number of operators                              ...    1
Number of atoms                                  ...   12
Basis set dimensions                             ...  141
Integral neglect threshold                       ... 2.5e-11
Integral primitive cutoff                        ... 2.5e-12

Setting up DFT Hessian calculations              ... 
Electron density on the grid                     ... found on disk
Electron density on the final grid               ... found on disk
Building xc-kernel on the grid                   ... done   (      0.0 sec)
Building xc-kernel on the final grid             ... done   (      0.0 sec)
[1631208311.841249] [comp0806:236343:0]            sys.c:618  UCX  ERROR shmget(size=2097152 flags=0xb80) for ucp_am_bufs failed: Operation not permitted, please check shared memory limits by 'ipcs -l'
                                                     done   (      0.1 sec)

Nuclear repulsion Hessian                        ... done   (      0.0 sec)

----------------------------------------------
Forming right-hand sides of CP-SCF equations     ...
----------------------------------------------
One electron integral derivatives                ... done   (      4.3 sec)
Transforming the overlap derivative matrices     ... done   (      0.0 sec)
[1631208317.311294] [comp0806:236342:0]            sys.c:618  UCX  ERROR shmget(size=6291456 flags=0xfb0) for mm_recv_desc failed: Operation not permitted, please check shared memory limits by 'ipcs -l'
[1631208317.312763] [comp0806:236341:0]            sys.c:618  UCX  ERROR shmget(size=6291456 flags=0xfb0) for mm_recv_desc failed: Operation not permitted, please check shared memory limits by 'ipcs -l'
Adding tr(S(x)F(y) C-PCM term to the hessian     ... done   (      0.8 sec)
Making the Q(x) pseudodensities                  ... done   (      0.0 sec)
Adding the E*S(x)*S(y) terms to the Hessian      ... done   (      0.0 sec)
Calculating energy weighted overlap derivatives  ... done   (      0.0 sec)
Two electron integral derivatives (RI)           ... done   (      2.9 sec)
Exchange-correlation integral derivatives        ... done   (      5.8 sec)
tr(F(y)Q(x)) contribution to the Hessian         ... done   (      0.0 sec)
Response fock operator R(S(x)) (RIJCOSX)         ... done   (      3.5 sec)
XC Response fock operator R(S(x))                ... done   (      2.0 sec)
tr(F(y)S(x)) contribution to the Hessian         ... done   (      0.0 sec)
Transforming and finalizing RHSs                 ... done   (      0.0 sec)

----------------------------------------------
Solving the CP-SCF equations (RIJCOSX)           ...
----------------------------------------------
     CP-SCF ITERATION   0: 
     CP-SCF ITERATION   1:      0.000918541671
     CP-SCF ITERATION   2:      0.000120054913
     CP-SCF ITERATION   3:      0.000011986955
     CP-SCF ITERATION   4:      0.000000335957
     CP-SCF ITERATION   5:      0.000000022826
     CP-SCF ITERATION   6:      0.000000008607

                                                 ... done   (     19.1 sec)
Forming perturbed density Hessian contributions  ... done   (      0.0 sec)
Calculating [Q*(d^2 A/dXdY)*Q  ] C-PCM term      ... done   (      0.0 sec)
Calculating [d^2(V_N)/(dXdY)*Q ] C-PCM term      ... done   (      0.0 sec)
Calculating [d^2(V_el)/(dXdY)*Q] C-PCM term      ... done   (      0.5 sec)
Calculating C-PCM term that depends on dQ/dX     ... done   (      0.0 sec)
2nd integral derivative contribs (RI)            ... done   (     14.1 sec)
Exchange-correlation Hessian                     ... done   (      5.9 sec)
Dispersion correction in the Hessian             ... done   (      0.6 sec)
Dipol derivatives                                ... done   (      0.2 sec)

Total SCF Hessian time: 0 days 0 hours 1 min 1 sec 

Writing the Hessian file to the disk             ... done


Maximum memory used throughout the entire calculation: 138.3 MB

-----------------------
VIBRATIONAL FREQUENCIES
-----------------------

Scaling factor for frequencies =  1.000000000  (already applied!)

   0:         0.00 cm**-1
   1:         0.00 cm**-1
   2:         0.00 cm**-1
   3:         0.00 cm**-1
   4:         0.00 cm**-1
   5:         0.00 cm**-1
   6:      -413.02 cm**-1 ***imaginary mode***
   7:        77.48 cm**-1
   8:       113.36 cm**-1
   9:       141.64 cm**-1
  10:       173.52 cm**-1
  11:       244.10 cm**-1
  12:       354.08 cm**-1
  13:       396.20 cm**-1
  14:       763.34 cm**-1
  15:       881.58 cm**-1
  16:       924.57 cm**-1
  17:       945.30 cm**-1
  18:       992.41 cm**-1
  19:      1065.74 cm**-1
  20:      1084.21 cm**-1
  21:      1157.63 cm**-1
  22:      1265.87 cm**-1
  23:      1340.17 cm**-1
  24:      1384.68 cm**-1
  25:      1417.90 cm**-1
  26:      1424.36 cm**-1
  27:      1450.51 cm**-1
  28:      1462.78 cm**-1
  29:      3046.00 cm**-1
  30:      3080.28 cm**-1
  31:      3125.82 cm**-1
  32:      3146.59 cm**-1
  33:      3152.38 cm**-1
  34:      3245.86 cm**-1
  35:      3379.79 cm**-1


------------
NORMAL MODES
------------

These modes are the Cartesian displacements weighted by the diagonal matrix
M(i,i)=1/sqrt(m[i]) where m[i] is the mass of the displaced atom
Thus, these vectors are normalized but *not* orthogonal

                  0          1          2          3          4          5    
      0       0.000000   0.000000   0.000000   0.000000   0.000000   0.000000
      1       0.000000   0.000000   0.000000   0.000000   0.000000   0.000000
      2       0.000000   0.000000   0.000000   0.000000   0.000000   0.000000
      3       0.000000   0.000000   0.000000   0.000000   0.000000   0.000000
      4       0.000000   0.000000   0.000000   0.000000   0.000000   0.000000
      5       0.000000   0.000000   0.000000   0.000000   0.000000   0.000000
      6       0.000000   0.000000   0.000000   0.000000   0.000000   0.000000
      7       0.000000   0.000000   0.000000   0.000000   0.000000   0.000000
      8       0.000000   0.000000   0.000000   0.000000   0.000000   0.000000
      9       0.000000   0.000000   0.000000   0.000000   0.000000   0.000000
     10       0.000000   0.000000   0.000000   0.000000   0.000000   0.000000
     11       0.000000   0.000000   0.000000   0.000000   0.000000   0.000000
     12       0.000000   0.000000   0.000000   0.000000   0.000000   0.000000
     13       0.000000   0.000000   0.000000   0.000000   0.000000   0.000000
     14       0.000000   0.000000   0.000000   0.000000   0.000000   0.000000
     15       0.000000   0.000000   0.000000   0.000000   0.000000   0.000000
     16       0.000000   0.000000   0.000000   0.000000   0.000000   0.000000
     17       0.000000   0.000000   0.000000   0.000000   0.000000   0.000000
     18       0.000000   0.000000   0.000000   0.000000   0.000000   0.000000
     19       0.000000   0.000000   0.000000   0.000000   0.000000   0.000000
     20       0.000000   0.000000   0.000000   0.000000   0.000000   0.000000
     21       0.000000   0.000000   0.000000   0.000000   0.000000   0.000000
     22       0.000000   0.000000   0.000000   0.000000   0.000000   0.000000
     23       0.000000   0.000000   0.000000   0.000000   0.000000   0.000000
     24       0.000000   0.000000   0.000000   0.000000   0.000000   0.000000
     25       0.000000   0.000000   0.000000   0.000000   0.000000   0.000000
     26       0.000000   0.000000   0.000000   0.000000   0.000000   0.000000
     27       0.000000   0.000000   0.000000   0.000000   0.000000   0.000000
     28       0.000000   0.000000   0.000000   0.000000   0.000000   0.000000
     29       0.000000   0.000000   0.000000   0.000000   0.000000   0.000000
     30       0.000000   0.000000   0.000000   0.000000   0.000000   0.000000
     31       0.000000   0.000000   0.000000   0.000000   0.000000   0.000000
     32       0.000000   0.000000   0.000000   0.000000   0.000000   0.000000
     33       0.000000   0.000000   0.000000   0.000000   0.000000   0.000000
     34       0.000000   0.000000   0.000000   0.000000   0.000000   0.000000
     35       0.000000   0.000000   0.000000   0.000000   0.000000   0.000000
                  6          7          8          9         10         11    
      0       0.017914   0.251404   0.167041  -0.131591   0.018358  -0.006723
      1       0.009583   0.205253  -0.050550   0.020270  -0.007203  -0.007114
      2      -0.006441  -0.160157   0.292453  -0.231962  -0.030134   0.013537
[...]
     33       0.002714   0.001844   0.000884   0.001692  -0.000477  -0.000353
     34       0.004817  -0.003478   0.000899  -0.002782  -0.000275  -0.000405
     35      -0.022409   0.003027  -0.000489  -0.000379   0.000577   0.000295
                 18         19         20         21         22         23    
      0      -0.014706  -0.062307   0.092464   0.015751  -0.062695  -0.028208
      1      -0.010955  -0.052007  -0.090901  -0.117951  -0.060022   0.058272
      2       0.010004   0.054155   0.013955  -0.100618   0.058525   0.027718
      3       0.004031   0.090092  -0.133421  -0.069199   0.032181  -0.114940
      4       0.001677   0.077894   0.024205   0.177453   0.031350   0.027183
      5      -0.004919  -0.076935  -0.129086   0.102283  -0.030424  -0.098890
      6       0.004544  -0.040873   0.054850   0.044841   0.018306   0.015603
      7       0.004017  -0.037324   0.067857  -0.090775   0.016333  -0.026501
      8      -0.001366   0.033749   0.132518  -0.041829  -0.016173  -0.009598
      9       0.005228  -0.001651   0.000969  -0.000340   0.000182  -0.000140
     10       0.004798  -0.001463   0.000761  -0.000141   0.000182  -0.000119
     11      -0.004717   0.000915  -0.000091   0.000019  -0.000034   0.000123
     12       0.023081   0.129516   0.139400  -0.241455   0.103718   0.241985
     13       0.041549   0.140852  -0.145964   0.247838   0.101376  -0.317379
     14      -0.031548  -0.135753  -0.001276  -0.009138  -0.104257  -0.049258
     15      -0.048538  -0.188792   0.099598   0.401699  -0.126335   0.076518
     16       0.098155   0.353480  -0.127649  -0.140459   0.255070  -0.299927
     17      -0.020161  -0.061689   0.015507   0.189075  -0.003182   0.104785
     18       0.097401   0.326715   0.141067   0.324131   0.206711   0.299349
     19      -0.060145  -0.224976  -0.119474  -0.193357  -0.187690  -0.110358
     20      -0.012562  -0.058021  -0.015469   0.257407  -0.060492  -0.104295
     21       0.085949   0.229563  -0.459935  -0.044884  -0.514057   0.280911
     22      -0.025811   0.072312   0.143059   0.166810   0.228046  -0.086232
     23       0.063243   0.468961  -0.280463   0.040867  -0.292077   0.350442
     24      -0.076378  -0.306480  -0.435335  -0.107284   0.476559   0.372137
     25       0.024141  -0.177432   0.189800   0.125667  -0.249219  -0.007126
     26      -0.065268  -0.361642  -0.360955   0.081816   0.313927   0.271836
     27      -0.393219   0.084158   0.047600   0.116804  -0.021296   0.099276
     28      -0.366041   0.078658   0.013966   0.128443  -0.019736   0.185739
     29       0.363849  -0.082534   0.058349   0.260859   0.022176   0.294420
     30      -0.437381   0.105226   0.258715  -0.323232  -0.001938   0.150999
     31      -0.408154   0.099796   0.013823   0.033704  -0.001861  -0.067337
     32       0.410864  -0.104109   0.285785  -0.319861   0.001852   0.095617
     33       0.005144  -0.001175  -0.000423   0.000047   0.000097   0.000122
     34       0.004778  -0.001141  -0.000527   0.000192   0.000083   0.000121
     35      -0.004779   0.001660   0.001244  -0.000302  -0.000220  -0.000138
                 24         25         26         27         28         29    
      0       0.106943   0.044251   0.028180  -0.028019   0.011394  -0.034530
      1      -0.087123  -0.035169   0.002762  -0.022555   0.023444   0.037827
      2       0.030262   0.013325   0.033874   0.026209   0.032358  -0.001353
      3      -0.068690  -0.052443  -0.077700  -0.010360   0.038008   0.001538
      4       0.009534   0.069464   0.039347  -0.011960   0.005313  -0.001574
      5      -0.064806   0.012897  -0.045746   0.014400   0.044561   0.000233
      6       0.013341  -0.016972   0.076886  -0.001921  -0.023829   0.000090
      7      -0.020021  -0.005551   0.015053  -0.000833  -0.005058   0.000104
      8      -0.005390  -0.024003   0.098894  -0.000758  -0.031088   0.000192
      9      -0.000037  -0.000189   0.000025   0.000029  -0.000011  -0.000013
     10       0.000126  -0.000168   0.000092   0.000070  -0.000052  -0.000010
     11       0.000008   0.000064  -0.000180  -0.000028   0.000089  -0.000002
     12      -0.211990  -0.036636  -0.016850   0.415331  -0.231998   0.283091
     13       0.371555   0.086940   0.072936   0.384632   0.324656   0.123869
     14       0.113203   0.038839   0.040715  -0.401507   0.101395   0.411548
     15      -0.255276  -0.065272  -0.121693   0.385918  -0.251402   0.354773
     16       0.255866   0.164885  -0.170168  -0.023736  -0.544518  -0.009061
     17      -0.246145  -0.073813  -0.074797   0.321583  -0.152280  -0.484437
     18      -0.420473  -0.182049   0.025734  -0.322035   0.209875  -0.241876
     19       0.118750   0.064213  -0.037024   0.049833  -0.154511  -0.553428
     20      -0.107472   0.032595  -0.225153  -0.388964  -0.551807   0.083853
     21      -0.024641   0.388013   0.261513   0.032063  -0.074247   0.000231
     22       0.052363  -0.166795  -0.111447  -0.033523   0.041404   0.005156
     23       0.420553  -0.424970  -0.102385   0.001865  -0.076470  -0.000783
     24       0.241394  -0.079411   0.073512  -0.042992  -0.094316  -0.003338
     25       0.299797  -0.591381  -0.284967   0.036128   0.014818   0.001108
     26       0.171470   0.003006   0.072558  -0.008361  -0.052512   0.002046
     27       0.049213   0.052170  -0.052416   0.003213   0.008595   0.001810
     28       0.069651   0.191994  -0.356470   0.006700   0.093440  -0.002948
     29       0.123241   0.249488  -0.416095   0.000744   0.103823  -0.001037
     30       0.017377   0.228713  -0.483783   0.001389   0.122396  -0.001993
     31      -0.020664  -0.088470   0.205992  -0.005681  -0.055817   0.002929
     32      -0.002547   0.159287  -0.317028   0.006602   0.076269   0.000818
     33      -0.000094   0.000117  -0.000178   0.000063   0.000091   0.000005
     34       0.000073   0.000119  -0.000091   0.000017   0.000029  -0.000001
     35       0.000036  -0.000201  -0.000006  -0.000058  -0.000019  -0.000010
                 30         31         32         33         34         35    
      0      -0.001657   0.021142   0.051161  -0.035929   0.000190   0.000268
      1      -0.003925   0.018869   0.045116  -0.045561  -0.000672  -0.000126
      2      -0.005679  -0.019829  -0.054050  -0.073024  -0.000386   0.000188
      3      -0.013473  -0.052277   0.021369   0.000066   0.002020  -0.000165
      4       0.055685  -0.048045   0.019296  -0.006124   0.000926   0.000792
      5       0.041739   0.047565  -0.019645  -0.002659   0.003118   0.000633
      6       0.000650  -0.000708   0.000264   0.000323  -0.037652  -0.056325
      7      -0.001250  -0.000638   0.000277   0.000273  -0.010751   0.083013
      8      -0.000514   0.000638  -0.000233   0.000685  -0.051522   0.022291
      9      -0.000056  -0.000043   0.000018  -0.000004  -0.000090   0.000080
     10      -0.000060  -0.000044   0.000010   0.000005  -0.000096  -0.000086
     11      -0.000026  -0.000037   0.000021  -0.000002   0.000133  -0.000037
     12       0.035824   0.002419   0.028888   0.475630   0.001116  -0.000169
     13       0.018134   0.003129   0.015017   0.195028   0.001782  -0.000377
     14       0.054402  -0.007203   0.024973   0.679132   0.002814  -0.000606
     15      -0.014661  -0.153887  -0.400806  -0.202649  -0.003352   0.001431
     16      -0.001447   0.007263   0.021474   0.000513   0.001031  -0.000609
     17       0.017678   0.212720   0.541914   0.256387   0.002856   0.000187
     18       0.008563  -0.102076  -0.241565   0.149850   0.000598   0.000890
     19       0.018627  -0.236994  -0.577456   0.355116   0.004778  -0.000879
     20      -0.005142   0.032326   0.080624  -0.064528  -0.000770   0.000583
     21      -0.270587   0.247511  -0.096146   0.025109  -0.000863  -0.004658
     22      -0.640740   0.605995  -0.239126   0.063027  -0.002304  -0.009253
     23       0.077856  -0.059073   0.024396  -0.006253  -0.000952  -0.000838
     24       0.428338   0.389191  -0.159217  -0.023977   0.000563   0.004685
     25      -0.006306  -0.020701   0.008584   0.001530  -0.000887  -0.000808
     26      -0.561969  -0.520506   0.209742   0.031479  -0.002273  -0.009426
     27      -0.009665   0.001088  -0.000473  -0.001895   0.548142   0.533634
     28       0.009983   0.000770  -0.000559   0.001558  -0.428148  -0.411350
     29      -0.000431  -0.000840   0.000600  -0.000555   0.163491   0.164481
     30      -0.001528  -0.001758   0.001313   0.001989  -0.127275   0.123444
     31       0.004650  -0.001463   0.000820  -0.004737   0.547649  -0.558207
     32       0.003017   0.001718  -0.001127  -0.002434   0.411227  -0.425855
     33       0.000009   0.000004  -0.000010  -0.000004   0.000132   0.000054
     34       0.000000   0.000009  -0.000005   0.000002   0.000111  -0.000110
     35      -0.000087   0.000072  -0.000024   0.000007  -0.000071  -0.000013


-----------
IR SPECTRUM
-----------

 Mode    freq (cm**-1)   T**2         TX         TY         TZ
-------------------------------------------------------------------
   7:        58.93    0.357151  ( -0.386894  -0.307023   0.336454)
   8:       103.67    5.829922  ( -1.805024   0.416334  -1.548701)
   9:       123.51    6.329192  (  1.955566  -0.603913   1.462957)
  10:       163.88   12.858660  (  0.166226   2.432266   2.629660)
  11:       231.55    0.147670  (  0.187852   0.178576  -0.283711)
  12:       331.55   42.769864  (  4.024106   3.682619  -3.607597)
  13:       394.32    1.336055  ( -0.595299   0.926653   0.350697)
  14:       749.06   53.626544  ( -4.463887  -4.162910   4.046040)
  15:       870.67    0.249644  (  0.287867   0.190314  -0.361328)
  16:       878.64    3.930023  ( -0.399968   1.531926   1.193001)
  17:       924.98   21.568268  (  2.312224   1.088697   3.877709)
  18:       939.50  163.977550  (  7.810590   7.259809  -7.089951)
  19:      1055.81   79.781350  ( -5.417931  -5.028174   5.014463)
  20:      1078.06   10.891125  (  1.344769   0.836677   2.895288)
  21:      1157.09    0.170349  (  0.287366  -0.217166   0.201515)
  22:      1260.47   19.866342  (  2.722715   2.509107  -2.481441)
  23:      1338.68    2.383618  (  0.987599   0.127145   1.179873)
  24:      1383.30   20.980094  ( -1.747284   3.792981   1.881591)
  25:      1411.27   26.524425  ( -2.192831  -1.817915  -4.290816)
  26:      1423.45    4.922428  ( -0.579844  -1.126897  -1.821074)
  27:      1450.80    9.576280  (  1.873240   1.622538  -1.853273)
  28:      1462.10    8.343957  ( -0.682144  -1.765528  -2.182097)
  29:      3047.94   31.022093  ( -4.159422   3.529832  -1.123203)
  30:      3080.18   11.376738  ( -1.545386   2.794410   1.086181)
  31:      3123.40    8.003183  ( -1.696206  -1.637469   1.563574)
  32:      3146.96   30.734405  (  3.273787   2.930003  -3.381095)
  33:      3153.08   25.291114  ( -1.797916  -2.596670  -3.913555)
  34:      3247.70    1.724990  ( -0.733853  -0.214987  -1.067816)
  35:      3383.03    9.444872  (  1.741944  -2.468963  -0.561004)

The first frequency considered to be a vibration is 7
The total number of vibrations considered is 29


--------------------------
THERMOCHEMISTRY AT 298.15K
--------------------------

Temperature         ... 298.15 K
Pressure            ... 1.00 atm
Total Mass          ... 202.89 AMU

Throughout the following assumptions are being made:
  (1) The electronic state is orbitally nondegenerate
  (2) There are no thermally accessible electronically excited states
  (3) Hindered rotations indicated by low frequency modes are not
      treated as such but are treated as vibrations and this may
      cause some error
  (4) All equations used are the standard statistical mechanics
      equations for an ideal gas
  (5) All vibrations are strictly harmonic

freq.      58.93  E(vib)   ...       0.51 
freq.     103.67  E(vib)   ...       0.46 
freq.     123.51  E(vib)   ...       0.43 
freq.     163.88  E(vib)   ...       0.39 
freq.     231.55  E(vib)   ...       0.32 
freq.     331.55  E(vib)   ...       0.24 
freq.     394.32  E(vib)   ...       0.20 
freq.     749.06  E(vib)   ...       0.06 
freq.     870.67  E(vib)   ...       0.04 
freq.     878.64  E(vib)   ...       0.04 
freq.     924.98  E(vib)   ...       0.03 
freq.     939.50  E(vib)   ...       0.03 
freq.    1055.81  E(vib)   ...       0.02 
freq.    1078.06  E(vib)   ...       0.02 
freq.    1157.09  E(vib)   ...       0.01 
freq.    1260.47  E(vib)   ...       0.01 
freq.    1338.68  E(vib)   ...       0.01 
freq.    1383.30  E(vib)   ...       0.00 
freq.    1411.27  E(vib)   ...       0.00 
freq.    1423.45  E(vib)   ...       0.00 
freq.    1450.80  E(vib)   ...       0.00 
freq.    1462.10  E(vib)   ...       0.00 
freq.    3047.94  E(vib)   ...       0.00 
freq.    3080.18  E(vib)   ...       0.00 
freq.    3123.40  E(vib)   ...       0.00 
freq.    3146.96  E(vib)   ...       0.00 
freq.    3153.08  E(vib)   ...       0.00 
freq.    3247.70  E(vib)   ...       0.00 
freq.    3383.03  E(vib)   ...       0.00 

------------
INNER ENERGY
------------

The inner energy is: U= E(el) + E(ZPE) + E(vib) + E(rot) + E(trans)
    E(el)   - is the total energy from the electronic structure calculation
              = E(kin-el) + E(nuc-el) + E(el-el) + E(nuc-nuc)
    E(ZPE)  - the the zero temperature vibrational energy from the frequency calculation
    E(vib)  - the the finite temperature correction to E(ZPE) due to population
              of excited vibrational states
    E(rot)  - is the rotational thermal energy
    E(trans)- is the translational thermal energy

Summary of contributions to the inner energy U:
Electronic energy                ...  -5265.55300411 Eh
Zero point energy                ...      0.09334468 Eh      58.57 kcal/mol
Thermal vibrational correction   ...      0.00450616 Eh       2.83 kcal/mol
Thermal rotational correction    ...      0.00141627 Eh       0.89 kcal/mol
Thermal translational correction ...      0.00141627 Eh       0.89 kcal/mol
-----------------------------------------------------------------------
Total thermal energy                  -5265.45232073 Eh


Summary of corrections to the electronic energy:
(perhaps to be used in another calculation)
Total thermal correction                  0.00733870 Eh       4.61 kcal/mol
Non-thermal (ZPE) correction              0.09334468 Eh      58.57 kcal/mol
-----------------------------------------------------------------------
Total correction                          0.10068338 Eh      63.18 kcal/mol


--------
ENTHALPY
--------

The enthalpy is H = U + kB*T
                kB is Boltzmann's constant
Total free energy                 ...  -5265.45232073 Eh 
Thermal Enthalpy correction       ...      0.00094421 Eh       0.59 kcal/mol
-----------------------------------------------------------------------
Total Enthalpy                    ...  -5265.45137652 Eh


Note: Only C1 symmetry has been detected, increase convergence thresholds 
      if your molecule has a higher symmetry. Symmetry factor of 1.0 is   
      used for the rotational entropy correction. 
 

Note: Rotational entropy computed according to Herzberg 
Infrared and Raman Spectra, Chapter V,1, Van Nostrand Reinhold, 1945 
Point Group:  C1, Symmetry Number:   1  
Rotational constants in cm-1:     0.103391     0.016484     0.014607 

Vibrational entropy computed according to the QRRHO of S. Grimme
Chem.Eur.J. 2012 18 9955


-------
ENTROPY
-------

The entropy contributions are T*S = T*(S(el)+S(vib)+S(rot)+S(trans))
     S(el)   - electronic entropy
     S(vib)  - vibrational entropy
     S(rot)  - rotational entropy
     S(trans)- translational entropy
The entropies will be listed as mutliplied by the temperature to get
units of energy

Electronic entropy                ...      0.00000000 Eh      0.00 kcal/mol
Vibrational entropy               ...      0.00821289 Eh      5.15 kcal/mol
Rotational entropy                ...      0.01451538 Eh      9.11 kcal/mol
Translational entropy             ...      0.01987324 Eh     12.47 kcal/mol
-----------------------------------------------------------------------
Final entropy term                ...      0.04260151 Eh     26.73 kcal/mol

In case the symmetry of your molecule has not been determined correctly
or in case you have a reason to use a different symmetry number we print 
out the resulting rotational entropy values for sn=1,12 :
 --------------------------------------------------------
|  sn= 1 | S(rot)=       0.01451538 Eh      9.11 kcal/mol|
|  sn= 2 | S(rot)=       0.01386093 Eh      8.70 kcal/mol|
|  sn= 3 | S(rot)=       0.01347809 Eh      8.46 kcal/mol|
|  sn= 4 | S(rot)=       0.01320647 Eh      8.29 kcal/mol|
|  sn= 5 | S(rot)=       0.01299578 Eh      8.15 kcal/mol|
|  sn= 6 | S(rot)=       0.01282364 Eh      8.05 kcal/mol|
|  sn= 7 | S(rot)=       0.01267809 Eh      7.96 kcal/mol|
|  sn= 8 | S(rot)=       0.01255201 Eh      7.88 kcal/mol|
|  sn= 9 | S(rot)=       0.01244080 Eh      7.81 kcal/mol|
|  sn=10 | S(rot)=       0.01234132 Eh      7.74 kcal/mol|
|  sn=11 | S(rot)=       0.01225133 Eh      7.69 kcal/mol|
|  sn=12 | S(rot)=       0.01216918 Eh      7.64 kcal/mol|
 --------------------------------------------------------


-------------------
GIBBS FREE ENERGY
-------------------

The Gibbs free energy is G = H - T*S

Total enthalpy                    ...  -5265.45137652 Eh 
Total entropy correction          ...     -0.04260151 Eh    -26.73 kcal/mol
-----------------------------------------------------------------------
Final Gibbs free energy         ...  -5265.49397803 Eh

For completeness - the Gibbs free energy minus the electronic energy
G-E(el)                           ...      0.05902608 Eh     37.04 kcal/mol

[1631208564.873115] [comp0806:239030:0]            sys.c:618  UCX  ERROR shmget(size=2097152 flags=0xfb0) for mm_recv_desc failed: Operation not permitted, please check shared memory limits by 'ipcs -l'
[1631208564.875011] [comp0806:239032:0]            sys.c:618  UCX  ERROR shmget(size=2097152 flags=0xfb0) for mm_recv_desc failed: Operation not permitted, please check shared memory limits by 'ipcs -l'
[1631208564.886777] [comp0806:239033:0]            sys.c:618  UCX  ERROR shmget(size=2097152 flags=0xfb0) for mm_recv_desc failed: Operation not permitted, please check shared memory limits by 'ipcs -l'
[1631208564.894496] [comp0806:239031:0]            sys.c:618  UCX  ERROR shmget(size=2097152 flags=0xfb0) for mm_recv_desc failed: Operation not permitted, please check shared memory limits by 'ipcs -l'
[1631208564.902991] [comp0806:239030:0]            sys.c:618  UCX  ERROR shmget(size=2097152 flags=0xb80) for ucp_am_bufs failed: Operation not permitted, please check shared memory limits by 'ipcs -l'
[1631208564.902998] [comp0806:239031:0]            sys.c:618  UCX  ERROR shmget(size=2097152 flags=0xb80) for ucp_am_bufs failed: Operation not permitted, please check shared memory limits by 'ipcs -l'
[1631208564.914462] [comp0806:239033:0]            sys.c:618  UCX  ERROR shmget(size=2097152 flags=0xb80) for ucp_am_bufs failed: Operation not permitted, please check shared memory limits by 'ipcs -l'
[1631208564.914453] [comp0806:239032:0]            sys.c:618  UCX  ERROR shmget(size=2097152 flags=0xb80) for ucp_am_bufs failed: Operation not permitted, please check shared memory limits by 'ipcs -l'

Timings for individual modules:

Sum of individual times         ...      269.038 sec (=   4.484 min)
GTO integral calculation        ...       12.635 sec (=   0.211 min)   4.7 %
SCF iterations                  ...       97.198 sec (=   1.620 min)  36.1 %
SCF Gradient evaluation         ...       33.508 sec (=   0.558 min)  12.5 %
Geometry relaxation             ...        1.076 sec (=   0.018 min)   0.4 %
Analytical frequency calculation...      124.621 sec (=   2.077 min)  46.3 %
                             ****ORCA TERMINATED NORMALLY****
TOTAL RUN TIME: 0 days 0 hours 4 minutes 32 seconds 863 msec
