
                                 *****************
                                 * O   R   C   A *
                                 *****************

           --- An Ab Initio, DFT and Semiempirical electronic structure package ---

                  #######################################################
                  #                        -***-                        #
                  #          Department of theory and spectroscopy      #
                  #               Directorship: Frank Neese             #
                  #        Max Planck Institute fuer Kohlenforschung    #
                  #                Kaiser Wilhelm Platz 1               #
                  #                 D-45470 Muelheim/Ruhr               #
                  #                      Germany                        #
                  #                                                     #
                  #                  All rights reserved                #
                  #                        -***-                        #
                  #######################################################


                         Program Version 4.2.1 -  RELEASE  -


 With contributions from (in alphabetic order):
   Daniel Aravena         : Magnetic Suceptibility
   Michael Atanasov       : Ab Initio Ligand Field Theory (pilot matlab implementation)
   Alexander A. Auer      : GIAO ZORA, VPT2
   Ute Becker             : Parallelization
   Giovanni Bistoni       : ED, misc. LED, open-shell LED, HFLD
   Martin Brehm           : Molecular dynamics
   Dmytro Bykov           : SCF Hessian
   Vijay G. Chilkuri      : MRCI spin determinant printing, contributions to CSF-ICE
   Dipayan Datta          : RHF DLPNO-CCSD density
   Achintya Kumar Dutta   : EOM-CC, STEOM-CC
   Dmitry Ganyushin       : Spin-Orbit,Spin-Spin,Magnetic field MRCI
   Miquel Garcia          : C-PCM Hessian, Gaussian charge scheme
   Yang Guo               : DLPNO-NEVPT2, CIM, IAO-localization
   Andreas Hansen         : Spin unrestricted coupled pair/coupled cluster methods
   Benjamin Helmich-Paris : CASSCF linear response (MC-RPA)
   Lee Huntington         : MR-EOM, pCC
   Robert Izsak           : Overlap fitted RIJCOSX, COSX-SCS-MP3, EOM
   Christian Kollmar      : KDIIS, OOCD, Brueckner-CCSD(T), CCSD density
   Simone Kossmann        : Meta GGA functionals, TD-DFT gradient, OOMP2, MP2 Hessian
   Martin Krupicka        : AUTO-CI
   Lucas Lang             : DCDCAS
   Dagmar Lenk            : GEPOL surface, SMD
   Dimitrios Liakos       : Extrapolation schemes; Compound Job, initial MDCI parallelization
   Dimitrios Manganas     : Further ROCIS development; embedding schemes
   Dimitrios Pantazis     : SARC Basis sets
   Taras Petrenko         : DFT Hessian,TD-DFT gradient, ASA, ECA, R-Raman, ABS, FL, XAS/XES, NRVS
   Peter Pinski           : DLPNO-MP2, DLPNO-MP2 Gradient
   Christoph Reimann      : Effective Core Potentials
   Marius Retegan         : Local ZFS, SOC
   Christoph Riplinger    : Optimizer, TS searches, QM/MM, DLPNO-CCSD(T), (RO)-DLPNO pert. Triples
   Tobias Risthaus        : Range-separated hybrids, TD-DFT gradient, RPA, STAB
   Michael Roemelt        : Original ROCIS implementation
   Masaaki Saitow         : Open-shell DLPNO-CCSD energy and density
   Barbara Sandhoefer     : DKH picture change effects
   Avijit Sen             : IP-ROCIS
   Kantharuban Sivalingam : CASSCF convergence, NEVPT2, FIC-MRCI
   Bernardo de Souza      : ESD, SOC TD-DFT
   Georgi Stoychev        : AutoAux, RI-MP2 NMR
   Willem Van den Heuvel  : Paramagnetic NMR
   Boris Wezisla          : Elementary symmetry handling
   Frank Wennmohs         : Technical directorship


 We gratefully acknowledge several colleagues who have allowed us to
 interface, adapt or use parts of their codes:
   Stefan Grimme, W. Hujo, H. Kruse,             : VdW corrections, initial TS optimization,
                  C. Bannwarth                     DFT functionals, gCP, sTDA/sTD-DF
   Ed Valeev, F. Pavosevic, A. Kumar             : LibInt (2-el integral package), F12 methods
   Garnet Chan, S. Sharma, J. Yang, R. Olivares  : DMRG
   Ulf Ekstrom                                   : XCFun DFT Library
   Mihaly Kallay                                 : mrcc  (arbitrary order and MRCC methods)
   Andreas Klamt, Michael Diedenhofen            : otool_cosmo (COSMO solvation model)
   Jiri Pittner, Ondrej Demel                    : Mk-CCSD
   Frank Weinhold                                : gennbo (NPA and NBO analysis)
   Christopher J. Cramer and Donald G. Truhlar   : smd solvation model
   Lars Goerigk                                  : TD-DFT with DH, B97 family of functionals
   V. Asgeirsson, H. Jonsson                     : NEB implementation
   FAccTs GmbH                                   : IRC, NEB, NEB-TS, Multilevel, MM, QM/MM, CI optimization
   S Lehtola, MJT Oliveira, MAL Marques          : LibXC Library


 Your calculation uses the libint2 library for the computation of 2-el integrals
 For citations please refer to: http://libint.valeyev.net

 Your ORCA version has been built with support for libXC version: 4.2.3
 For citations please refer to: https://tddft.org/programs/libxc/

 This ORCA versions uses:
   CBLAS   interface :  Fast vector & matrix operations
   LAPACKE interface :  Fast linear algebra routines
   SCALAPACK package :  Parallel linear algebra routines


Your calculation utilizes the atom-pairwise dispersion correction
with the Becke-Johnson damping scheme (D3BJ)
Cite in your paper:
S.Grimme, S.Ehrlich, L.Goerigk, J Comput Chem, (2011), 32, 1456–1465 
S.Grimme, J.Antony, S.Ehrlich and H.Krieg, J.Chem.Phys., 132, (2010), 154104 
   

----- Orbital basis set information -----
Your calculation utilizes the basis: def2-SVP
   F. Weigend and R. Ahlrichs, Phys. Chem. Chem. Phys. 7, 3297 (2005).

----- AuxJ basis set information -----
Your calculation utilizes the auxiliary basis: def2/J
   F. Weigend, Phys. Chem. Chem. Phys. 8, 1057 (2006).

================================================================================
                                        WARNINGS
                       Please study these warnings very carefully!
================================================================================


WARNING: Geometry Optimization
  ===> : Switching off AutoStart
         For restart on a previous wavefunction, please use MOREAD

INFO   : the flag for use of LIBINT has been found!

================================================================================
                                       INPUT FILE
================================================================================
NAME = manual_344_redo_2.inp
|  1> ! OptTS Freq PBE0 RIJCOSX D3BJ def2-SVP def2/J CPCM(DMF)
|  2> %geom
|  3> modify_internal
|  4> { B 3 14 A } end
|  5> end
|  6> %geom
|  7> modify_internal
|  8> { B 3 4 A } end
|  9> end
| 10> %output 
| 11> xyzfile=True 
| 12> end 
| 13> %scf 
| 14> maxiter 250 
| 15> end
| 16> %output
| 17> Print[P_Hirshfeld] = 1
| 18> end
| 19> % maxcore
| 20> 4000
| 21> %geom
| 22> Calc_Hess true
| 23> Recalc_Hess 30
| 24> Trust -0.1
| 25> MaxIter 150
| 26> end
| 27> %pal nprocs 4
| 28> end
| 29> *xyz -1 1
| 30> C     2.39274   0.14302  -0.92768
| 31> C     1.02683   0.78234  -0.69679
| 32> C     0.62904   1.74746  -1.80892
| 33> C    -0.04097  -0.25020  -0.43572
| 34> Br   -0.71578   0.18185   1.88201
| 35> H     2.37224  -0.46166  -1.84606
| 36> H     3.16903   0.91782  -1.02107
| 37> H     2.66760  -0.51504  -0.08816
| 38> H     1.09277   1.37060   0.23255
| 39> H    -0.32014   2.25414  -1.57136
| 40> H     1.39842   2.52300  -1.94482
| 41> H     0.50311   1.19464  -2.75088
| 42> H    -1.07118  -0.06902  -0.72448
| 43> H     0.21935  -1.25460  -0.11997
| 44> Cl   -0.02967  -1.40001  -2.65132
| 45> *
| 46> 
| 47>                          ****END OF INPUT****
================================================================================

                       *****************************
                       * Geometry Optimization Run *
                       *****************************

Geometry optimization settings:
Update method            Update   .... Bofill
Choice of coordinates    CoordSys .... Z-matrix Internals
Initial Hessian          InHess   .... Almoef's Model

Convergence Tolerances:
Energy Change            TolE     ....  5.0000e-06 Eh
Max. Gradient            TolMAXG  ....  3.0000e-04 Eh/bohr
RMS Gradient             TolRMSG  ....  1.0000e-04 Eh/bohr
Max. Displacement        TolMAXD  ....  4.0000e-03 bohr
RMS Displacement         TolRMSD  ....  2.0000e-03 bohr
Strict Convergence                ....  False
------------------------------------------------------------------------------
                        ORCA OPTIMIZATION COORDINATE SETUP
------------------------------------------------------------------------------

The optimization will be done in new redundant internal coordinates
Making redundant internal coordinates   ...  (new redundants) Bond  14,  3 is already included
Bond   4,  3 is already included
done
Following TS mode number                ...     0
Evaluating the initial hessian          ...  (Is done on the fly) done
Evaluating the coordinates              ...  done
Calculating the B-matrix                .... done
Calculating the G-matrix                .... done
Diagonalizing the G-matrix              .... done
The first mode is                       ....   85
The number of degrees of freedom        ....   39

    -----------------------------------------------------------------
                    Redundant Internal Coordinates


    -----------------------------------------------------------------
         Definition                    Initial Value    d2E/dq (diagonal element)
    -----------------------------------------------------------------
      1. B(C   1,C   0)                  1.5257         0.000000   
      2. B(C   2,C   1)                  1.5253         0.000000   
      3. B(C   3,C   1)                  1.5081         0.000000   
      4. B(Br  4,C   3)                  2.4523         0.000000   
      5. B(Br  4,C   1)                  3.1698         0.000000   
      6. B(H   5,C   0)                  1.0998         0.000000   
      7. B(H   6,C   0)                  1.1008         0.000000   
      8. B(H   7,C   0)                  1.1015         0.000000   
      9. B(H   8,Br  4)                  2.7212         0.000000   
     10. B(H   8,C   1)                  1.1018         0.000000   
     11. B(H   9,C   2)                  1.1019         0.000000   
     12. B(H  10,C   2)                  1.1009         0.000000   
     13. B(H  11,C   2)                  1.0994         0.000000   
     14. B(H  12,C   3)                  1.0851         0.000000   
     15. B(H  12,Br  4)                  2.6425         0.000000   
     16. B(H  13,C   3)                  1.0846         0.000000   
     17. B(H  13,Br  4)                  2.6355         0.000000   
     18. B(Cl 14,H  12)                  2.5630         0.000000   
     19. B(Cl 14,H  11)                  2.6507         0.000000   
     20. B(Cl 14,H   5)                  2.7015         0.000000   
     21. B(Cl 14,C   3)                  2.4962         0.000000   
     22. B(Cl 14,H  13)                  2.5477         0.000000   
     23. B(Cl 14,C   1)                  3.1143         0.000000   
     24. A(C   1,C   0,H   6)          110.4423         0.000000   
     25. A(H   5,C   0,H   7)          108.2172         0.000000   
     26. A(C   1,C   0,H   7)          111.0011         0.000000   
     27. A(H   5,C   0,H   6)          109.2269         0.000000   
     28. A(C   1,C   0,H   5)          109.8819         0.000000   
     29. A(H   6,C   0,H   7)          108.0102         0.000000   
     30. A(C   3,C   1,Br  4)           48.7173         0.000000   
     31. A(C   2,C   1,C   3)          112.0101         0.000000   
     32. A(C   2,C   1,Br  4)          124.7279         0.000000   
     33. A(C   2,C   1,H   8)          107.0236         0.000000   
     34. A(C   3,C   1,H   8)          105.1821         0.000000   
     35. A(C   2,C   1,Cl 14)           84.1069         0.000000   
     36. A(C   0,C   1,Cl 14)           85.1296         0.000000   
     37. A(Br  4,C   1,H   8)           56.4857         0.000000   
     38. A(C   0,C   1,H   8)          107.3243         0.000000   
     39. A(C   0,C   1,C   2)          112.8476         0.000000   
     40. A(Br  4,C   1,Cl 14)          101.0306         0.000000   
     41. A(C   0,C   1,C   3)          111.9118         0.000000   
     42. A(H   8,C   1,Cl 14)          157.4812         0.000000   
     43. A(C   3,C   1,Cl 14)           52.3158         0.000000   
     44. A(C   0,C   1,Br  4)          122.4062         0.000000   
     45. A(H   9,C   2,H  10)          107.7409         0.000000   
     46. A(C   1,C   2,H  10)          110.7017         0.000000   
     47. A(C   1,C   2,H   9)          111.0032         0.000000   
     48. A(H  10,C   2,H  11)          109.1788         0.000000   
     49. A(H   9,C   2,H  11)          108.4977         0.000000   
     50. A(C   1,C   2,H  11)          109.6580         0.000000   
     51. A(Br  4,C   3,H  13)           87.3665         0.000000   
     52. A(Br  4,C   3,H  12)           87.7558         0.000000   
     53. A(C   1,C   3,Br  4)          103.7575         0.000000   
     54. A(C   1,C   3,H  12)          120.7841         0.000000   
     55. A(H  12,C   3,H  13)          117.3848         0.000000   
     56. A(C   1,C   3,H  13)          120.9636         0.000000   
     57. A(Br  4,C   3,Cl 14)          157.1121         0.000000   
     58. A(H  13,C   3,Cl 14)           80.2553         0.000000   
     59. A(H  12,C   3,Cl 14)           81.0841         0.000000   
     60. A(C   1,C   3,Cl 14)           99.1204         0.000000   
     61. A(C   1,Br  4,C   3)           27.5252         0.000000   
     62. A(C   1,Cl 14,C   3)           28.5638         0.000000   
     63. D(H   8,C   1,C   0,H   7)     60.0066         0.000000   
     64. D(Br  4,C   1,C   0,H   5)    118.8187         0.000000   
     65. D(C   2,C   1,C   0,H   5)    -62.6696         0.000000   
     66. D(C   3,C   1,C   0,H   7)    -54.9015         0.000000   
     67. D(C   3,C   1,C   0,H   6)   -174.6724         0.000000   
     68. D(Cl 14,C   1,C   0,H   7)   -100.8287         0.000000   
     69. D(H   8,C   1,C   0,H   5)    179.6708         0.000000   
     70. D(H   8,C   1,C   0,H   6)    -59.7644         0.000000   
     71. D(C   2,C   1,C   0,H   6)     57.8953         0.000000   
     72. D(Cl 14,C   1,C   0,H   6)    139.4004         0.000000   
     73. D(C   3,C   1,C   0,H   5)     64.7627         0.000000   
     74. D(Cl 14,C   1,C   0,H   5)     18.8355         0.000000   
     75. D(Br  4,C   1,C   0,H   6)   -120.6165         0.000000   
     76. D(C   2,C   1,C   0,H   7)    177.6662         0.000000   
     77. D(Br  4,C   1,C   0,H   7)     -0.8456         0.000000   
     78. D(H  11,C   2,C   1,Cl 14)    -17.2990         0.000000   
     79. D(H  11,C   2,C   1,Br  4)   -116.6507         0.000000   
     80. D(H  11,C   2,C   1,H   8)   -177.2856         0.000000   
     81. D(H  11,C   2,C   1,C   0)     64.8781         0.000000   
     82. D(H  10,C   2,C   1,Cl 14)   -137.8246         0.000000   
     83. D(H  10,C   2,C   1,Br  4)    122.8237         0.000000   
     84. D(H   9,C   2,C   1,Br  4)      3.2188         0.000000   
     85. D(H   9,C   2,C   1,H   8)    -57.4161         0.000000   
     86. D(H   9,C   2,C   1,Cl 14)    102.5705         0.000000   
     87. D(H  11,C   2,C   1,C   3)    -62.5023         0.000000   
     88. D(H  10,C   2,C   1,C   3)    176.9720         0.000000   
     89. D(H  10,C   2,C   1,H   8)     62.1888         0.000000   
     90. D(H  10,C   2,C   1,C   0)    -55.6475         0.000000   
     91. D(H   9,C   2,C   1,C   3)     57.3672         0.000000   
     92. D(H   9,C   2,C   1,C   0)   -175.2523         0.000000   
     93. D(H  12,C   3,C   1,C   0)   -149.7691         0.000000   
     94. D(Cl 14,C   3,C   1,Br  4)   -179.3174         0.000000   
     95. D(Cl 14,C   3,C   1,C   2)     63.1160         0.000000   
     96. D(Cl 14,C   3,C   1,C   0)    -64.7642         0.000000   
     97. D(Br  4,C   3,C   1,Cl 14)    179.3174         0.000000   
     98. D(Br  4,C   3,C   1,C   2)   -117.5665         0.000000   
     99. D(Br  4,C   3,C   1,C   0)    114.5532         0.000000   
    100. D(H  13,C   3,C   1,Cl 14)     84.0539         0.000000   
    101. D(H  13,C   3,C   1,Br  4)    -95.2635         0.000000   
    102. D(H  13,C   3,C   1,H   8)    -96.9242         0.000000   
    103. D(H  13,C   3,C   1,C   2)    147.1700         0.000000   
    104. D(Br  4,C   3,C   1,H   8)     -1.6608         0.000000   
    105. D(H  13,C   3,C   1,C   0)     19.2897         0.000000   
    106. D(H  12,C   3,C   1,Cl 14)    -85.0048         0.000000   
    107. D(H  12,C   3,C   1,Br  4)     95.6777         0.000000   
    108. D(Cl 14,C   3,C   1,H   8)    179.0218         0.000000   
    109. D(H  12,C   3,C   1,H   8)     94.0170         0.000000   
    110. D(H  12,C   3,C   1,C   2)    -21.8888         0.000000   
    111. D(C   1,Br  4,C   3,H  13)    121.2644         0.000000   
    112. D(C   1,Br  4,C   3,H  12)   -121.1802         0.000000   
    113. D(C   3,Br  4,C   1,Cl 14)     -0.5503         0.000000   
    114. D(C   3,Br  4,C   1,H   8)    178.0775         0.000000   
    115. D(C   3,Br  4,C   1,C   2)     89.8989         0.000000   
    116. D(C   1,Br  4,C   3,Cl 14)    178.2670         0.000000   
    117. D(C   3,Br  4,C   1,C   0)    -91.7698         0.000000   
    118. D(C   1,Cl 14,C   3,Br  4)   -178.2952         0.000000   
    119. D(C   1,Cl 14,C   3,H  13)   -120.0754         0.000000   
    120. D(C   1,Cl 14,C   3,H  12)    119.9678         0.000000   
    121. D(C   3,Cl 14,C   1,Br  4)      0.5226         0.000000   
    122. D(C   3,Cl 14,C   1,H   8)     -2.4656         0.000000   
    123. D(C   3,Cl 14,C   1,C   2)   -123.7663         0.000000   
    124. D(C   3,Cl 14,C   1,C   0)    122.6209         0.000000   
    -----------------------------------------------------------------

Number of atoms                         .... 15
Number of degrees of freedom            .... 124

         *************************************************************
         *                GEOMETRY OPTIMIZATION CYCLE   1            *
         *************************************************************
---------------------------------
CARTESIAN COORDINATES (ANGSTROEM)
---------------------------------
  C      2.392740    0.143020   -0.927680
  C      1.026830    0.782340   -0.696790
  C      0.629040    1.747460   -1.808920
  C     -0.040970   -0.250200   -0.435720
  Br    -0.715780    0.181850    1.882010
  H      2.372240   -0.461660   -1.846060
  H      3.169030    0.917820   -1.021070
  H      2.667600   -0.515040   -0.088160
  H      1.092770    1.370600    0.232550
  H     -0.320140    2.254140   -1.571360
  H      1.398420    2.523000   -1.944820
  H      0.503110    1.194640   -2.750880
  H     -1.071180   -0.069020   -0.724480
  H      0.219350   -1.254600   -0.119970
  Cl    -0.029670   -1.400010   -2.651320

----------------------------
CARTESIAN COORDINATES (A.U.)
----------------------------
  NO LB      ZA    FRAG     MASS         X           Y           Z
   0 C     6.0000    0    12.011    4.521623    0.270269   -1.753061
   1 C     6.0000    0    12.011    1.940427    1.478408   -1.316742
   2 C     6.0000    0    12.011    1.188713    3.302221   -3.418363
   3 C     6.0000    0    12.011   -0.077422   -0.472809   -0.823391
   4 Br   35.0000    0    79.900   -1.352628    0.343647    3.556483
   5 H     1.0000    0     1.008    4.482884   -0.872411   -3.488548
   6 H     1.0000    0     1.008    5.988599    1.734428   -1.929543
   7 H     1.0000    0     1.008    5.041033   -0.973285   -0.166598
   8 H     1.0000    0     1.008    2.065036    2.590059    0.439456
   9 H     1.0000    0     1.008   -0.604977    4.259707   -2.969440
  10 H     1.0000    0     1.008    2.642631    4.767779   -3.675177
  11 H     1.0000    0     1.008    0.950740    2.257542   -5.198410
  12 H     1.0000    0     1.008   -2.024237   -0.130429   -1.369069
  13 H     1.0000    0     1.008    0.414511   -2.370850   -0.226710
  14 Cl   17.0000    0    35.453   -0.056068   -2.645635   -5.010269

--------------------------------
INTERNAL COORDINATES (ANGSTROEM)
--------------------------------
 C      0   0   0     0.000000000000     0.00000000     0.00000000
 C      1   0   0     1.525696687615     0.00000000     0.00000000
 C      2   1   0     1.525295589517   112.84764788     0.00000000
 C      2   1   3     1.508142313079   111.91183111   127.43230084
 Br     4   2   1     2.452327076778   103.75752220   114.55319752
 H      1   2   3     1.099763600416   109.88194630   297.33042644
 H      1   2   3     1.100755602393   110.44227904    57.89525944
 H      1   2   3     1.101537477165   111.00111978   177.66619205
 H      2   1   3     1.101848785814   107.32429528   242.34038482
 H      3   2   1     1.101862989849   111.00316276   184.74765226
 H      3   2   1     1.100852708585   110.70172314   304.35250251
 H      3   2   1     1.099434836132   109.65797099    64.87814320
 H      4   2   1     1.085145692569   120.78411360   210.23092517
 H      4   2   1     1.084566238134   120.96358473    19.28970701
 Cl     4   2   1     2.496211947351    99.12039791   295.23575763

---------------------------
INTERNAL COORDINATES (A.U.)
---------------------------
 C      0   0   0     0.000000000000     0.00000000     0.00000000
 C      1   0   0     2.883148903024     0.00000000     0.00000000
 C      2   1   0     2.882390937465   112.84764788     0.00000000
 C      2   1   3     2.849975942698   111.91183111   127.43230084
 Br     4   2   1     4.634226565911   103.75752220   114.55319752
 H      1   2   3     2.078252016841   109.88194630   297.33042644
 H      1   2   3     2.080126628903   110.44227904    57.89525944
 H      1   2   3     2.081604158093   111.00111978   177.66619205
 H      2   1   3     2.082192446182   107.32429528   242.34038482
 H      3   2   1     2.082219287919   111.00316276   184.74765226
 H      3   2   1     2.080310133012   110.70172314   304.35250251
 H      3   2   1     2.077630742382   109.65797099    64.87814320
 H      4   2   1     2.050628174359   120.78411360   210.23092517
 H      4   2   1     2.049533164170   120.96358473    19.28970701
 Cl     4   2   1     4.717156952716    99.12039791   295.23575763

---------------------
BASIS SET INFORMATION
---------------------
There are 4 groups of distinct atoms

 Group   1 Type C   : 7s4p1d contracted to 3s2p1d pattern {511/31/1}
 Group   2 Type Br  : 14s10p6d contracted to 5s4p3d pattern {63311/5311/411}
 Group   3 Type H   : 4s1p contracted to 2s1p pattern {31/1}
 Group   4 Type Cl  : 10s7p1d contracted to 4s3p1d pattern {5311/511/1}

Atom   0C    basis set group =>   1
Atom   1C    basis set group =>   1
Atom   2C    basis set group =>   1
Atom   3C    basis set group =>   1
Atom   4Br   basis set group =>   2
Atom   5H    basis set group =>   3
Atom   6H    basis set group =>   3
Atom   7H    basis set group =>   3
Atom   8H    basis set group =>   3
Atom   9H    basis set group =>   3
Atom  10H    basis set group =>   3
Atom  11H    basis set group =>   3
Atom  12H    basis set group =>   3
Atom  13H    basis set group =>   3
Atom  14Cl   basis set group =>   4
---------------------------------
AUXILIARY/J BASIS SET INFORMATION
---------------------------------
There are 4 groups of distinct atoms

 Group   1 Type C   : 12s5p4d2f1g contracted to 6s4p3d1f1g pattern {711111/2111/211/2/1}
 Group   2 Type Br  : 19s5p5d3f1g contracted to 8s4p3d2f1g pattern {121111111/2111/311/21/1}
 Group   3 Type H   : 5s2p1d contracted to 3s1p1d pattern {311/2/1}
 Group   4 Type Cl  : 14s5p5d2f1g contracted to 8s4p3d1f1g pattern {71111111/2111/311/2/1}

Atom   0C    basis set group =>   1
Atom   1C    basis set group =>   1
Atom   2C    basis set group =>   1
Atom   3C    basis set group =>   1
Atom   4Br   basis set group =>   2
Atom   5H    basis set group =>   3
Atom   6H    basis set group =>   3
Atom   7H    basis set group =>   3
Atom   8H    basis set group =>   3
Atom   9H    basis set group =>   3
Atom  10H    basis set group =>   3
Atom  11H    basis set group =>   3
Atom  12H    basis set group =>   3
Atom  13H    basis set group =>   3
Atom  14Cl   basis set group =>   4
[1631611213.260866] [comp0808:31155:0]            sys.c:618  UCX  ERROR shmget(size=2097152 flags=0xfb0) for mm_recv_desc failed: Operation not permitted, please check shared memory limits by 'ipcs -l'
[1631611213.261566] [comp0808:31156:0]            sys.c:618  UCX  ERROR shmget(size=2097152 flags=0xfb0) for mm_recv_desc failed: Operation not permitted, please check shared memory limits by 'ipcs -l'
[1631611213.261722] [comp0808:31153:0]            sys.c:618  UCX  ERROR shmget(size=2097152 flags=0xfb0) for mm_recv_desc failed: Operation not permitted, please check shared memory limits by 'ipcs -l'
[1631611213.263591] [comp0808:31154:0]            sys.c:618  UCX  ERROR shmget(size=2097152 flags=0xfb0) for mm_recv_desc failed: Operation not permitted, please check shared memory limits by 'ipcs -l'
[1631611213.291276] [comp0808:31153:0]            sys.c:618  UCX  ERROR shmget(size=2097152 flags=0xb80) for ucp_am_bufs failed: Operation not permitted, please check shared memory limits by 'ipcs -l'
[1631611213.292005] [comp0808:31154:0]            sys.c:618  UCX  ERROR shmget(size=2097152 flags=0xb80) for ucp_am_bufs failed: Operation not permitted, please check shared memory limits by 'ipcs -l'
[1631611213.297059] [comp0808:31155:0]            sys.c:618  UCX  ERROR shmget(size=2097152 flags=0xb80) for ucp_am_bufs failed: Operation not permitted, please check shared memory limits by 'ipcs -l'
[1631611213.297658] [comp0808:31156:0]            sys.c:618  UCX  ERROR shmget(size=2097152 flags=0xb80) for ucp_am_bufs failed: Operation not permitted, please check shared memory limits by 'ipcs -l'


           ************************************************************
           *        Program running with 4 parallel MPI-processes     *
           *              working on a common directory               *
           ************************************************************
------------------------------------------------------------------------------
                           ORCA GTO INTEGRAL CALCULATION
                           -- RI-GTO INTEGRALS CHOSEN --
------------------------------------------------------------------------------

                         BASIS SET STATISTICS AND STARTUP INFO

Gaussian basis set:
 # of primitive gaussian shells          ...  141
 # of primitive gaussian functions       ...  269
 # of contracted shells                  ...   71
 # of contracted basis functions         ...  151
 Highest angular momentum                ...    2
 Maximum contraction depth               ...    6
Auxiliary gaussian basis set:
 # of primitive gaussian shells          ...  228
 # of primitive gaussian functions       ...  590
 # of contracted shells                  ...  140
 # of contracted aux-basis functions     ...  404
 Highest angular momentum                ...    4
 Maximum contraction depth               ...   12
Ratio of auxiliary to basis functions    ...  2.68
Integral package used                  ... LIBINT
 One Electron integrals                  ... done
 Ordering auxiliary basis shells         ... done
 Integral threshhold             Thresh  ...  2.500e-11
 Primitive cut-off               TCut    ...  2.500e-12
 Pre-screening matrix                    ... done
 Shell pair data                         ... 
 Ordering of the shell pairs             ... done (   0.000 sec) 2361 of 2556 pairs
 Determination of significant pairs      ... done (   0.000 sec)
 Creation of shell pair data             ... done (   0.000 sec)
 Storage of shell pair data              ... done (   0.007 sec)
 Shell pair data done in (   0.008 sec)
 Computing two index integrals           ... done
 Cholesky decomposition of the V-matrix  ... done


Timings:
 Total evaluation time                   ...   0.210 sec (  0.003 min)
 One electron matrix time                ...   0.023 sec (  0.000 min) = 10.7%
 Schwartz matrix evaluation time         ...   0.136 sec (  0.002 min) = 64.5%
 Two index repulsion integral time       ...   0.004 sec (  0.000 min) =  1.7%
 Cholesky decomposition of V             ...   0.002 sec (  0.000 min) =  1.0%
 Three index repulsion integral time     ...   0.000 sec (  0.000 min) =  0.0%

[1631611214.415951] [comp0808:31177:0]            sys.c:618  UCX  ERROR shmget(size=2097152 flags=0xfb0) for mm_recv_desc failed: Operation not permitted, please check shared memory limits by 'ipcs -l'
[1631611214.420566] [comp0808:31175:0]            sys.c:618  UCX  ERROR shmget(size=2097152 flags=0xfb0) for mm_recv_desc failed: Operation not permitted, please check shared memory limits by 'ipcs -l'
[1631611214.422177] [comp0808:31178:0]            sys.c:618  UCX  ERROR shmget(size=2097152 flags=0xfb0) for mm_recv_desc failed: Operation not permitted, please check shared memory limits by 'ipcs -l'
[1631611214.432067] [comp0808:31176:0]            sys.c:618  UCX  ERROR shmget(size=2097152 flags=0xfb0) for mm_recv_desc failed: Operation not permitted, please check shared memory limits by 'ipcs -l'
[1631611214.448167] [comp0808:31178:0]            sys.c:618  UCX  ERROR shmget(size=2097152 flags=0xb80) for ucp_am_bufs failed: Operation not permitted, please check shared memory limits by 'ipcs -l'
[1631611214.448935] [comp0808:31177:0]            sys.c:618  UCX  ERROR shmget(size=2097152 flags=0xb80) for ucp_am_bufs failed: Operation not permitted, please check shared memory limits by 'ipcs -l'
[1631611214.448952] [comp0808:31175:0]            sys.c:618  UCX  ERROR shmget(size=2097152 flags=0xb80) for ucp_am_bufs failed: Operation not permitted, please check shared memory limits by 'ipcs -l'


           ************************************************************
           *        Program running with 4 parallel MPI-processes     *
           *              working on a common directory               *
           ************************************************************
[1631611214.452573] [comp0808:31176:0]            sys.c:618  UCX  ERROR shmget(size=2097152 flags=0xb80) for ucp_am_bufs failed: Operation not permitted, please check shared memory limits by 'ipcs -l'
-------------------------------------------------------------------------------
                                 ORCA SCF
-------------------------------------------------------------------------------

------------
SCF SETTINGS
------------
Hamiltonian:
 Density Functional     Method          .... DFT(GTOs)
 Exchange Functional    Exchange        .... PBE
   PBE kappa parameter   XKappa         ....  0.804000
   PBE mue parameter    XMuePBE         ....  0.219520
 Correlation Functional Correlation     .... PBE
   PBE beta parameter  CBetaPBE         ....  0.066725
 LDA part of GGA corr.  LDAOpt          .... PW91-LDA
 Gradients option       PostSCFGGA      .... off
 Hybrid DFT is turned on
   Fraction HF Exchange ScalHFX         ....  0.250000
   Scaling of DF-GGA-X  ScalDFX         ....  0.750000
   Scaling of DF-GGA-C  ScalDFC         ....  1.000000
   Scaling of DF-LDA-C  ScalLDAC        ....  1.000000
   Perturbative correction              ....  0.000000
   Density functional embedding theory  .... OFF
   NL short-range parameter             ....  6.900000
 RI-approximation to the Coulomb term is turned on
   Number of auxiliary basis functions  .... 404
   RIJ-COSX (HFX calculated with COS-X)).... on


General Settings:
 Integral files         IntName         .... manual_344_redo_2
 Hartree-Fock type      HFTyp           .... RHF
 Total Charge           Charge          ....   -1
 Multiplicity           Mult            ....    1
 Number of Electrons    NEL             ....   86
 Basis Dimension        Dim             ....  151
 Nuclear Repulsion      ENuc            ....    465.6768285477 Eh

Convergence Acceleration:
 DIIS                   CNVDIIS         .... on
   Start iteration      DIISMaxIt       ....    12
   Startup error        DIISStart       ....  0.200000
   # of expansion vecs  DIISMaxEq       ....     5
   Bias factor          DIISBfac        ....   1.050
   Max. coefficient     DIISMaxC        ....  10.000
 Newton-Raphson         CNVNR           .... off
 SOSCF                  CNVSOSCF        .... on
   Start iteration      SOSCFMaxIt      ....   150
   Startup grad/error   SOSCFStart      ....  0.003300
 Level Shifting         CNVShift        .... on
   Level shift para.    LevelShift      ....    0.2500
   Turn off err/grad.   ShiftErr        ....    0.0010
 Zerner damping         CNVZerner       .... off
 Static damping         CNVDamp         .... on
   Fraction old density DampFac         ....    0.7000
   Max. Damping (<1)    DampMax         ....    0.9800
   Min. Damping (>=0)   DampMin         ....    0.0000
   Turn off err/grad.   DampErr         ....    0.1000
 Fernandez-Rico         CNVRico         .... off

SCF Procedure:
 Maximum # iterations   MaxIter         ....   250
 SCF integral mode      SCFMode         .... Direct
   Integral package                     .... LIBINT
 Reset frequency        DirectResetFreq ....    20
 Integral Threshold     Thresh          ....  2.500e-11 Eh
 Primitive CutOff       TCut            ....  2.500e-12 Eh

Convergence Tolerance:
 Convergence Check Mode ConvCheckMode   .... Total+1el-Energy
 Convergence forced     ConvForced      .... 0
 Energy Change          TolE            ....  1.000e-08 Eh
 1-El. energy change                    ....  1.000e-05 Eh
 Orbital Gradient       TolG            ....  1.000e-05
 Orbital Rotation angle TolX            ....  1.000e-05
 DIIS Error             TolErr          ....  5.000e-07


Diagonalization of the overlap matrix:
Smallest eigenvalue                        ... 1.966e-03
Time for diagonalization                   ...    0.006 sec
Threshold for overlap eigenvalues          ... 1.000e-08
Number of eigenvalues below threshold      ... 0
Time for construction of square roots      ...    0.002 sec
Total time needed                          ...    0.008 sec

-------------------
DFT GRID GENERATION
-------------------

General Integration Accuracy     IntAcc      ...  4.340
Radial Grid Type                 RadialGrid  ... Gauss-Chebyshev
Angular Grid (max. acc.)         AngularGrid ... Lebedev-110
Angular grid pruning method      GridPruning ... 3 (G Style)
Weight generation scheme         WeightScheme... Becke
Basis function cutoff            BFCut       ...    1.0000e-11
Integration weight cutoff        WCut        ...    1.0000e-14
Grids for H and He will be reduced by one unit

# of grid points (after initial pruning)     ...  18504 (   0.0 sec)
# of grid points (after weights+screening)   ...  17252 (   0.0 sec)
nearest neighbour list constructed           ...    0.0 sec
Grid point re-assignment to atoms done       ...    0.0 sec
Grid point division into batches done        ...    0.0 sec
Reduced shell lists constructed in    0.1 sec

Total number of grid points                  ...    17252
Total number of batches                      ...      277
Average number of points per batch           ...       62
Average number of grid points per atom       ...     1150
Average number of shells per batch           ...    53.86 (75.86%)
Average number of basis functions per batch  ...   113.24 (74.99%)
Average number of large shells per batch     ...    44.86 (83.29%)
Average number of large basis fcns per batch ...    91.14 (80.49%)
Maximum spatial batch extension              ...  19.12, 19.57, 18.16 au
Average spatial batch extension              ...   0.73,  0.73,  0.71 au

Time for grid setup =    0.102 sec

------------------------------
INITIAL GUESS: MODEL POTENTIAL
------------------------------
Loading Hartree-Fock densities                     ... done
Calculating cut-offs                               ... done
Setting up the integral package                    ... done
Initializing the effective Hamiltonian             ... done
Starting the Coulomb interaction                   ... done (   0.0 sec)
Reading the grid                                   ... done
Mapping shells                                     ... done
Starting the XC term evaluation                    ... done (   0.0 sec)
  promolecular density results
     # of electrons  =     85.003531546
     EX              =   -139.684910986
     EC              =     -3.433878614
     EX+EC           =   -143.118789600
Transforming the Hamiltonian                       ... done (   0.0 sec)
Diagonalizing the Hamiltonian                      ... done (   0.0 sec)
Back transforming the eigenvectors                 ... done (   0.0 sec)
Now organizing SCF variables                       ... done
                      ------------------
                      INITIAL GUESS DONE (   0.3 sec)
                      ------------------
--------------------
COSX GRID GENERATION
--------------------

General Integration Accuracy     IntAcc      ...  3.340
Radial Grid Type                 RadialGrid  ... Gauss-Chebyshev
Angular Grid (max. acc.)         AngularGrid ... Lebedev-50
Angular grid pruning method      GridPruning ... 3 (G Style)
Weight generation scheme         WeightScheme... Becke
Basis function cutoff            BFCut       ...    1.0000e-11
Integration weight cutoff        WCut        ...    1.0000e-14
Grids for H and He will be reduced by one unit

# of grid points (after initial pruning)     ...   6948 (   0.0 sec)
# of grid points (after weights+screening)   ...   6483 (   0.0 sec)
nearest neighbour list constructed           ...    0.0 sec
Grid point re-assignment to atoms done       ...    0.0 sec
Grid point division into batches done        ...    0.0 sec
Reduced shell lists constructed in    0.0 sec

Total number of grid points                  ...     6483
Total number of batches                      ...      110
Average number of points per batch           ...       58
Average number of grid points per atom       ...      432
Average number of shells per batch           ...    55.31 (77.90%)
Average number of basis functions per batch  ...   116.69 (77.28%)
Average number of large shells per batch     ...    47.14 (85.22%)
Average number of large basis fcns per batch ...    95.97 (82.24%)
Maximum spatial batch extension              ...  11.71, 14.27, 15.00 au
Average spatial batch extension              ...   0.84,  0.86,  0.82 au

Overlap Fitting                  UseSFitting ... on
Constructing numerical overlap ... done (      0.0 sec)
Inverting numerical overlap    ... done (      0.0 sec)
Obtaining analytic overlap     ... done (      0.0 sec)
Final contraction and storage  ... done (      0.0 sec)


General Integration Accuracy     IntAcc      ...  3.670
Radial Grid Type                 RadialGrid  ... Gauss-Chebyshev
Angular Grid (max. acc.)         AngularGrid ... Lebedev-50
Angular grid pruning method      GridPruning ... 3 (G Style)
Weight generation scheme         WeightScheme... Becke
Basis function cutoff            BFCut       ...    1.0000e-11
Integration weight cutoff        WCut        ...    1.0000e-14
Grids for H and He will be reduced by one unit

# of grid points (after initial pruning)     ...   8800 (   0.0 sec)
# of grid points (after weights+screening)   ...   8185 (   0.0 sec)
nearest neighbour list constructed           ...    0.0 sec
Grid point re-assignment to atoms done       ...    0.0 sec
Grid point division into batches done        ...    0.0 sec
Reduced shell lists constructed in    0.0 sec

Total number of grid points                  ...     8185
Total number of batches                      ...      134
Average number of points per batch           ...       61
Average number of grid points per atom       ...      546
Average number of shells per batch           ...    55.31 (77.91%)
Average number of basis functions per batch  ...   116.34 (77.05%)
Average number of large shells per batch     ...    46.83 (84.66%)
Average number of large basis fcns per batch ...    95.06 (81.70%)
Maximum spatial batch extension              ...  14.50, 15.62, 15.13 au
Average spatial batch extension              ...   0.75,  0.79,  0.78 au

Overlap Fitting                  UseSFitting ... on
Constructing numerical overlap ... done (      0.0 sec)
Inverting numerical overlap    ... done (      0.0 sec)
Obtaining analytic overlap     ... done (      0.0 sec)
Final contraction and storage  ... done (      0.0 sec)


General Integration Accuracy     IntAcc      ...  4.010
Radial Grid Type                 RadialGrid  ... Gauss-Chebyshev
Angular Grid (max. acc.)         AngularGrid ... Lebedev-110
Angular grid pruning method      GridPruning ... 3 (G Style)
Weight generation scheme         WeightScheme... Becke
Basis function cutoff            BFCut       ...    1.0000e-11
Integration weight cutoff        WCut        ...    1.0000e-14
Grids for H and He will be reduced by one unit

# of grid points (after initial pruning)     ...  16122 (   0.0 sec)
# of grid points (after weights+screening)   ...  15064 (   0.0 sec)
nearest neighbour list constructed           ...    0.0 sec
Grid point re-assignment to atoms done       ...    0.0 sec
Grid point division into batches done        ...    0.0 sec
Reduced shell lists constructed in    0.0 sec

Total number of grid points                  ...    15064
Total number of batches                      ...      242
Average number of points per batch           ...       62
Average number of grid points per atom       ...     1004
Average number of shells per batch           ...    54.26 (76.42%)
Average number of basis functions per batch  ...   114.10 (75.56%)
Average number of large shells per batch     ...    45.50 (83.86%)
Average number of large basis fcns per batch ...    92.82 (81.35%)
Maximum spatial batch extension              ...  18.45, 14.92, 14.37 au
Average spatial batch extension              ...   0.72,  0.69,  0.70 au

Overlap Fitting                  UseSFitting ... on
Constructing numerical overlap ... done (      0.0 sec)
Inverting numerical overlap    ... done (      0.0 sec)
Obtaining analytic overlap     ... done (      0.0 sec)
Final contraction and storage  ... done (      0.0 sec)

Time for X-Grid setup             =    0.172 sec

--------------------
CPCM SOLVATION MODEL
--------------------
CPCM parameters:
  Epsilon                                         ...      38.3000
  Refrac                                          ...       1.4300
  Rsolv                                           ...       1.3000
  Surface type                                    ...    GEPOL SES
  Epsilon function type                           ...         CPCM
Radii:
 Radius for C  used is    3.7795 Bohr (=   2.0000 Ang.)
 Radius for Br used is    4.0818 Bohr (=   2.1600 Ang.)
 Radius for H  used is    2.4566 Bohr (=   1.3000 Ang.)
 Radius for Cl used is    3.8739 Bohr (=   2.0500 Ang.)
Calculating surface                               ...        done! (  0.1s)
GEPOL surface points                              ...          593
GEPOL Volume                                      ...    1094.3766
GEPOL Surface-area                                ...     608.6763
Calculating surface distance matrix               ...        done! (  0.0s)
Performing Cholesky decomposition & store         ...        done! (  0.0s)
Overall time for CPCM initialization              ...                 0.1s
--------------
SCF ITERATIONS
--------------
ITER       Energy         Delta-E        Max-DP      RMS-DP      [F,P]     Damp
               ***  Starting incremental Fock matrix formation  ***
  0  -3190.9753452777   0.000000000000 0.08535126  0.00216413  0.1575013 0.7000
  1  -3191.0431063006  -0.067761022931 0.05993932  0.00161941  0.0844387 0.7000
                               ***Turning on DIIS***
  2  -3191.0740451949  -0.030938894301 0.12632296  0.00309221  0.0385822 0.0000
  3  -3191.1189169362  -0.044871741336 0.03330594  0.00098994  0.0445540 0.0000
  4  -3191.1297756368  -0.010858700515 0.01595046  0.00032377  0.0088638 0.0000
                      *** Initiating the SOSCF procedure ***
                           *** Shutting down DIIS ***
                      *** Re-Reading the Fockian *** 
                      *** Removing any level shift *** 
ITER      Energy       Delta-E        Grad      Rot      Max-DP    RMS-DP
  5  -3191.13028108  -0.0005054401  0.000739  0.000739  0.001978  0.000095
               *** Restarting incremental Fock matrix formation ***
  6  -3191.13030349  -0.0000224172  0.000474  0.001806  0.001299  0.000070
  7  -3191.13030637  -0.0000028734  0.000258  0.000436  0.000914  0.000023
  8  -3191.13030950  -0.0000031349  0.000065  0.000183  0.000357  0.000009
  9  -3191.13030948   0.0000000190  0.000070  0.000106  0.000189  0.000004
 10  -3191.13030962  -0.0000001339  0.000009  0.000025  0.000070  0.000001
 11  -3191.13030962   0.0000000019  0.000012  0.000009  0.000034  0.000001
                  ***Gradient check signals convergence***
              ***Rediagonalizing the Fockian in SOSCF/NRSCF***

               *****************************************************
               *                     SUCCESS                       *
               *           SCF CONVERGED AFTER  12 CYCLES          *
               *****************************************************

Setting up the final grid:

General Integration Accuracy     IntAcc      ...  4.670
Radial Grid Type                 RadialGrid  ... Gauss-Chebyshev
Angular Grid (max. acc.)         AngularGrid ... Lebedev-302
Angular grid pruning method      GridPruning ... 3 (G Style)
Weight generation scheme         WeightScheme... Becke
Basis function cutoff            BFCut       ...    1.0000e-11
Integration weight cutoff        WCut        ...    1.0000e-14
Grids for H and He will be reduced by one unit

# of grid points (after initial pruning)     ...  71748 (   0.0 sec)
# of grid points (after weights+screening)   ...  66055 (   0.0 sec)
nearest neighbour list constructed           ...    0.0 sec
Grid point re-assignment to atoms done       ...    0.0 sec
Grid point division into batches done        ...    0.2 sec
Reduced shell lists constructed in    0.3 sec

Total number of grid points                  ...    66055
Total number of batches                      ...     1039
Average number of points per batch           ...       63
Average number of grid points per atom       ...     4404
Average number of shells per batch           ...    51.35 (72.32%)
Average number of basis functions per batch  ...   107.38 (71.11%)
Average number of large shells per batch     ...    42.04 (81.87%)
Average number of large basis fcns per batch ...    84.80 (78.97%)
Maximum spatial batch extension              ...  17.00, 16.41, 15.86 au
Average spatial batch extension              ...   0.50,  0.49,  0.48 au

Final grid set up in    0.4 sec
Final integration                            ... done (   0.1 sec)
Change in XC energy                          ...     0.000411082
Integrated number of electrons               ...    86.000134752
Previous integrated no of electrons          ...    86.006091547
Old exchange energy                            =    -35.310291717 Eh
New exchange energy                            =    -35.309845103 Eh
Exchange energy change after final integration =      0.000446614 Eh
Total energy after final integration           =  -3191.129451900 Eh
Final COS-X integration done in                =     0.891 sec

----------------
TOTAL SCF ENERGY
----------------

Total Energy       :        -3191.12945190 Eh          -86835.04699 eV

Components:
Nuclear Repulsion  :          465.67682855 Eh           12671.71072 eV
Electronic Energy  :        -3656.80628045 Eh          -99506.75772 eV
One Electron Energy:        -5373.55837920 Eh         -146221.95728 eV
Two Electron Energy:         1716.75209875 Eh           46715.19956 eV
CPCM Dielectric    :           -0.08748946 Eh              -2.38071 eV

Virial components:
Potential Energy   :        -6376.89957433 Eh         -173524.25922 eV
Kinetic Energy     :         3185.77012243 Eh           86689.21223 eV
Virial Ratio       :            2.00168227


DFT components:
N(Alpha)           :       43.000067376009 electrons
N(Beta)            :       43.000067376009 electrons
N(Total)           :       86.000134752017 electrons
E(X)               :     -105.428829521347 Eh       
E(C)               :       -3.484985033373 Eh       
E(XC)              :     -108.913814554720 Eh       
DFET-embed. en.    :        0.000000000000 Eh       
CPCM Solvation Model Properties:
Surface-charge          :            0.97679003
Charge-correction       :           -0.00321923 Eh              -0.08760 eV
Free-energy (cav+disp)  :            0.00394239 Eh               0.10728 eV
Corrected G(solv)       :        -3191.12872874 Eh          -86835.02732 eV

---------------
SCF CONVERGENCE
---------------

  Last Energy change         ...    1.9058e-08  Tolerance :   1.0000e-08
  Last MAX-Density change    ...    6.2172e-15  Tolerance :   1.0000e-07
  Last RMS-Density change    ...    9.5209e-17  Tolerance :   5.0000e-09
  Last Orbital Gradient      ...    5.2106e-07  Tolerance :   1.0000e-05
  Last Orbital Rotation      ...    7.5216e-07  Tolerance :   1.0000e-05

             **** THE GBW FILE WAS UPDATED (manual_344_redo_2.gbw) ****
             **** DENSITY FILE WAS UPDATED (manual_344_redo_2.scfp) ****
             **** ENERGY FILE WAS UPDATED (manual_344_redo_2.en.tmp) ****
             **** THE GBW FILE WAS UPDATED (manual_344_redo_2.gbw) ****
             **** DENSITY FILE WAS UPDATED (manual_344_redo_2.scfp) ****
----------------
ORBITAL ENERGIES
----------------

  NO   OCC          E(Eh)            E(eV) 
   0   2.0000    -483.115348    -13146.2370 
   1   2.0000    -101.567086     -2763.7809 
   2   2.0000     -62.550918     -1702.0970 
   3   2.0000     -56.339478     -1533.0751 
   4   2.0000     -56.338311     -1533.0434 
   5   2.0000     -56.338224     -1533.0410 
   6   2.0000     -10.291914      -280.0572 
   7   2.0000     -10.236117      -278.5389 
   8   2.0000     -10.212644      -277.9002 
   9   2.0000     -10.211941      -277.8810 
  10   2.0000      -9.414435      -256.1798 
  11   2.0000      -8.694878      -236.5997 
  12   2.0000      -7.151982      -194.6153 
  13   2.0000      -7.148968      -194.5333 
  14   2.0000      -7.148915      -194.5319 
  15   2.0000      -6.504765      -177.0036 
  16   2.0000      -6.499321      -176.8555 
  17   2.0000      -6.499235      -176.8532 
  18   2.0000      -2.590976       -70.5041 
  19   2.0000      -2.589535       -70.4648 
  20   2.0000      -2.589460       -70.4628 
  21   2.0000      -2.585088       -70.3438 
  22   2.0000      -2.585077       -70.3435 
  23   2.0000      -0.823446       -22.4071 
  24   2.0000      -0.722968       -19.6729 
  25   2.0000      -0.711418       -19.3587 
  26   2.0000      -0.686977       -18.6936 
  27   2.0000      -0.664990       -18.0953 
  28   2.0000      -0.564995       -15.3743 
  29   2.0000      -0.466387       -12.6910 
  30   2.0000      -0.461722       -12.5641 
  31   2.0000      -0.443752       -12.0751 
  32   2.0000      -0.388875       -10.5818 
  33   2.0000      -0.375958       -10.2303 
  34   2.0000      -0.361612        -9.8400 
  35   2.0000      -0.342657        -9.3242 
  36   2.0000      -0.340991        -9.2788 
  37   2.0000      -0.291598        -7.9348 
  38   2.0000      -0.252445        -6.8694 
  39   2.0000      -0.250403        -6.8138 
  40   2.0000      -0.243784        -6.6337 
  41   2.0000      -0.242990        -6.6121 
  42   2.0000      -0.230066        -6.2604 
  43   0.0000      -0.029044        -0.7903 
  44   0.0000       0.083116         2.2617 
  45   0.0000       0.126711         3.4480 
  46   0.0000       0.130972         3.5639 
  47   0.0000       0.141837         3.8596 
  48   0.0000       0.144929         3.9437 
  49   0.0000       0.147922         4.0252 
  50   0.0000       0.179255         4.8778 
  51   0.0000       0.189956         5.1690 
  52   0.0000       0.196339         5.3427 
  53   0.0000       0.217135         5.9085 
  54   0.0000       0.260440         7.0869 
  55   0.0000       0.275276         7.4906 
  56   0.0000       0.396342        10.7850 
  57   0.0000       0.416769        11.3409 
  58   0.0000       0.433943        11.8082 
  59   0.0000       0.435019        11.8375 
  60   0.0000       0.456456        12.4208 
  61   0.0000       0.483015        13.1435 
  62   0.0000       0.536672        14.6036 
  63   0.0000       0.549315        14.9476 
  64   0.0000       0.557796        15.1784 
  65   0.0000       0.588749        16.0207 
  66   0.0000       0.589537        16.0421 
  67   0.0000       0.606802        16.5119 
  68   0.0000       0.624723        16.9996 
  69   0.0000       0.629753        17.1365 
  70   0.0000       0.636679        17.3249 
  71   0.0000       0.653269        17.7763 
  72   0.0000       0.658960        17.9312 
  73   0.0000       0.665974        18.1221 
  74   0.0000       0.684535        18.6272 
  75   0.0000       0.695859        18.9353 
  76   0.0000       0.704410        19.1680 
  77   0.0000       0.717045        19.5118 
  78   0.0000       0.718658        19.5557 
  79   0.0000       0.720417        19.6036 
  80   0.0000       0.735806        20.0223 
  81   0.0000       0.741219        20.1696 
  82   0.0000       0.745319        20.2812 
  83   0.0000       0.755359        20.5544 
  84   0.0000       0.785457        21.3734 
  85   0.0000       0.804316        21.8865 
  86   0.0000       0.842254        22.9189 
  87   0.0000       0.859775        23.3957 
  88   0.0000       0.895697        24.3732 
  89   0.0000       0.905256        24.6333 
  90   0.0000       0.911486        24.8028 
  91   0.0000       0.959874        26.1195 
  92   0.0000       0.998397        27.1678 
  93   0.0000       1.010657        27.5014 
  94   0.0000       1.066048        29.0086 
  95   0.0000       1.079860        29.3845 
  96   0.0000       1.118177        30.4271 
  97   0.0000       1.173149        31.9230 
  98   0.0000       1.212120        32.9835 
  99   0.0000       1.229379        33.4531 
 100   0.0000       1.295063        35.2405 
 101   0.0000       1.335104        36.3300 
 102   0.0000       1.371234        37.3132 
 103   0.0000       1.467091        39.9216 
 104   0.0000       1.531456        41.6730 
 105   0.0000       1.557530        42.3825 
 106   0.0000       1.562187        42.5093 
 107   0.0000       1.579117        42.9700 
 108   0.0000       1.707311        46.4583 
 109   0.0000       1.710044        46.5327 
 110   0.0000       1.765823        48.0505 
 111   0.0000       1.797653        48.9166 
 112   0.0000       1.819274        49.5050 
 113   0.0000       1.820460        49.5372 
 114   0.0000       1.833106        49.8814 
 115   0.0000       1.842737        50.1434 
 116   0.0000       1.859713        50.6054 
 117   0.0000       1.878408        51.1141 
 118   0.0000       1.911196        52.0063 
 119   0.0000       1.939400        52.7738 
 120   0.0000       1.972772        53.6819 
 121   0.0000       1.995018        54.2872 
 122   0.0000       2.025009        55.1033 
 123   0.0000       2.100901        57.1684 
 124   0.0000       2.145865        58.3920 
 125   0.0000       2.212015        60.1920 
 126   0.0000       2.245499        61.1031 
 127   0.0000       2.259146        61.4745 
 128   0.0000       2.308332        62.8129 
 129   0.0000       2.362784        64.2946 
 130   0.0000       2.434513        66.2465 
 131   0.0000       2.448651        66.6312 
 132   0.0000       2.493494        67.8514 
 133   0.0000       2.574028        70.0428 
 134   0.0000       2.581457        70.2450 
 135   0.0000       2.633488        71.6609 
 136   0.0000       2.687488        73.1303 
 137   0.0000       2.842007        77.3349 
 138   0.0000       2.844883        77.4132 
 139   0.0000       2.877169        78.2918 
 140   0.0000       2.945535        80.1521 
 141   0.0000       2.963437        80.6392 
 142   0.0000       2.972153        80.8764 
 143   0.0000       3.052673        83.0675 
 144   0.0000       3.106539        84.5332 
 145   0.0000       3.111534        84.6691 
 146   0.0000       3.524305        95.9012 
 147   0.0000       3.528934        96.0272 
 148   0.0000       3.564935        97.0068 
 149   0.0000       3.575680        97.2992 
 150   0.0000       3.757783       102.2545 

                    ********************************
                    * MULLIKEN POPULATION ANALYSIS *
                    ********************************

-----------------------
MULLIKEN ATOMIC CHARGES
-----------------------
   0 C :   -0.060898
   1 C :   -0.170131
   2 C :   -0.052539
   3 C :    0.045130
   4 Br:   -0.617575
   5 H :    0.026279
   6 H :    0.043783
   7 H :    0.045074
   8 H :    0.068347
   9 H :    0.041874
  10 H :    0.043215
  11 H :    0.024165
  12 H :    0.101642
  13 H :    0.102234
  14 Cl:   -0.640600
Sum of atomic charges:   -1.0000000

--------------------------------
MULLIKEN REDUCED ORBITAL CHARGES
--------------------------------
  0 C s       :     3.037951  s :     3.037951
      pz      :     1.030190  p :     2.995803
      px      :     0.954802
      py      :     1.010812
      dz2     :     0.004986  d :     0.027144
      dxz     :     0.002943
      dyz     :     0.007697
      dx2y2   :     0.003604
      dxy     :     0.007913
  1 C s       :     3.117245  s :     3.117245
      pz      :     1.036956  p :     3.007896
      px      :     0.979750
      py      :     0.991191
      dz2     :     0.009076  d :     0.044990
      dxz     :     0.006106
      dyz     :     0.009820
      dx2y2   :     0.007877
      dxy     :     0.012110
  2 C s       :     3.036859  s :     3.036859
      pz      :     0.997574  p :     2.988559
      px      :     1.010546
      py      :     0.980439
      dz2     :     0.007451  d :     0.027122
      dxz     :     0.002402
      dyz     :     0.006813
      dx2y2   :     0.002470
      dxy     :     0.007986
  3 C s       :     3.230370  s :     3.230370
      pz      :     0.697492  p :     2.695939
      px      :     1.010605
      py      :     0.987842
      dz2     :     0.005483  d :     0.028561
      dxz     :     0.003611
      dyz     :     0.004567
      dx2y2   :     0.009009
      dxy     :     0.005891
  4 Brs       :     7.985772  s :     7.985772
      pz      :     5.689070  p :    17.621314
      px      :     5.959583
      py      :     5.972661
      dz2     :     2.005136  d :    10.010489
      dxz     :     2.002425
      dyz     :     2.002191
      dx2y2   :     2.000171
      dxy     :     2.000565
  5 H s       :     0.948796  s :     0.948796
      pz      :     0.012193  p :     0.024925
      px      :     0.004521
      py      :     0.008210
  6 H s       :     0.932521  s :     0.932521
      pz      :     0.005246  p :     0.023697
      px      :     0.009007
      py      :     0.009444
  7 H s       :     0.931318  s :     0.931318
      pz      :     0.010508  p :     0.023608
      px      :     0.004763
      py      :     0.008337
  8 H s       :     0.908203  s :     0.908203
      pz      :     0.012362  p :     0.023450
      px      :     0.004094
      py      :     0.006994
  9 H s       :     0.934404  s :     0.934404
      pz      :     0.004910  p :     0.023723
      px      :     0.012033
      py      :     0.006780
 10 H s       :     0.933026  s :     0.933026
      pz      :     0.004693  p :     0.023759
      px      :     0.009615
      py      :     0.009451
 11 H s       :     0.950727  s :     0.950727
      pz      :     0.011360  p :     0.025108
      px      :     0.005051
      py      :     0.008697
 12 H s       :     0.873804  s :     0.873804
      pz      :     0.005459  p :     0.024554
      px      :     0.014882
      py      :     0.004212
 13 H s       :     0.873108  s :     0.873108
      pz      :     0.005410  p :     0.024658
      px      :     0.004416
      py      :     0.014832
 14 Cls       :     5.984726  s :     5.984726
      pz      :     3.801348  p :    11.652971
      px      :     3.953567
      py      :     3.898055
      dz2     :     0.001223  d :     0.002903
      dxz     :     0.000313
      dyz     :     0.000908
      dx2y2   :     0.000290
      dxy     :     0.000169


                     *******************************
                     * LOEWDIN POPULATION ANALYSIS *
                     *******************************

----------------------
LOEWDIN ATOMIC CHARGES
----------------------
   0 C :   -0.069706
   1 C :   -0.076359
   2 C :   -0.068825
   3 C :    0.068989
   4 Br:   -0.511111
   5 H :    0.011744
   6 H :    0.028811
   7 H :    0.029005
   8 H :    0.037497
   9 H :    0.028618
  10 H :    0.028540
  11 H :    0.009511
  12 H :    0.025044
  13 H :    0.024110
  14 Cl:   -0.565868

-------------------------------
LOEWDIN REDUCED ORBITAL CHARGES
-------------------------------
  0 C s       :     2.846343  s :     2.846343
      pz      :     1.075614  p :     3.152925
      px      :     1.017401
      py      :     1.059910
      dz2     :     0.013457  d :     0.070439
      dxz     :     0.006633
      dyz     :     0.019962
      dx2y2   :     0.009388
      dxy     :     0.020999
  1 C s       :     2.843592  s :     2.843592
      pz      :     1.064710  p :     3.126330
      px      :     1.027076
      py      :     1.034544
      dz2     :     0.021395  d :     0.106437
      dxz     :     0.012224
      dyz     :     0.024833
      dx2y2   :     0.017190
      dxy     :     0.030795
  2 C s       :     2.846543  s :     2.846543
      pz      :     1.050075  p :     3.151784
      px      :     1.059326
      py      :     1.042382
      dz2     :     0.018031  d :     0.070498
      dxz     :     0.005909
      dyz     :     0.019237
      dx2y2   :     0.006232
      dxy     :     0.021088
  3 C s       :     2.981105  s :     2.981105
      pz      :     0.756010  p :     2.884613
      px      :     1.078602
      py      :     1.050002
      dz2     :     0.011049  d :     0.065293
      dxz     :     0.007934
      dyz     :     0.008656
      dx2y2   :     0.022152
      dxy     :     0.015503
  4 Brs       :     7.944792  s :     7.944792
      pz      :     5.644038  p :    17.554920
      px      :     5.948885
      py      :     5.961996
      dz2     :     2.005834  d :    10.011399
      dxz     :     2.002562
      dyz     :     2.002222
      dx2y2   :     2.000183
      dxy     :     2.000597
  5 H s       :     0.917283  s :     0.917283
      pz      :     0.034602  p :     0.070973
      px      :     0.013718
      py      :     0.022653
  6 H s       :     0.904880  s :     0.904880
      pz      :     0.013388  p :     0.066309
      px      :     0.026627
      py      :     0.026294
  7 H s       :     0.904883  s :     0.904883
      pz      :     0.028953  p :     0.066112
      px      :     0.014301
      py      :     0.022857
  8 H s       :     0.890539  s :     0.890539
      pz      :     0.036462  p :     0.071964
      px      :     0.013822
      py      :     0.021680
  9 H s       :     0.905383  s :     0.905383
      pz      :     0.014212  p :     0.065999
      px      :     0.033190
      py      :     0.018597
 10 H s       :     0.905125  s :     0.905125
      pz      :     0.013761  p :     0.066335
      px      :     0.025999
      py      :     0.026574
 11 H s       :     0.918693  s :     0.918693
      pz      :     0.035002  p :     0.071796
      px      :     0.013057
      py      :     0.023737
 12 H s       :     0.897180  s :     0.897180
      pz      :     0.016537  p :     0.077776
      px      :     0.048016
      py      :     0.013223
 13 H s       :     0.897646  s :     0.897646
      pz      :     0.016490  p :     0.078244
      px      :     0.014191
      py      :     0.047563
 14 Cls       :     5.950351  s :     5.950351
      pz      :     3.768295  p :    11.613012
      px      :     3.953617
      py      :     3.891100
      dz2     :     0.001084  d :     0.002505
      dxz     :     0.000250
      dyz     :     0.000791
      dx2y2   :     0.000249
      dxy     :     0.000132


                      *****************************
                      * MAYER POPULATION ANALYSIS *
                      *****************************

  NA   - Mulliken gross atomic population
  ZA   - Total nuclear charge
  QA   - Mulliken gross atomic charge
  VA   - Mayer's total valence
  BVA  - Mayer's bonded valence
  FA   - Mayer's free valence

  ATOM       NA         ZA         QA         VA         BVA        FA
  0 C      6.0609     6.0000    -0.0609     3.9267     3.9267     0.0000
  1 C      6.1701     6.0000    -0.1701     4.0811     4.0811    -0.0000
  2 C      6.0525     6.0000    -0.0525     3.9214     3.9214     0.0000
  3 C      5.9549     6.0000     0.0451     3.7531     3.7531    -0.0000
  4 Br    35.6176    35.0000    -0.6176     0.6568     0.6568    -0.0000
  5 H      0.9737     1.0000     0.0263     1.0475     1.0475     0.0000
  6 H      0.9562     1.0000     0.0438     0.9870     0.9870     0.0000
  7 H      0.9549     1.0000     0.0451     0.9844     0.9844     0.0000
  8 H      0.9317     1.0000     0.0683     0.9973     0.9973    -0.0000
  9 H      0.9581     1.0000     0.0419     0.9850     0.9850     0.0000
 10 H      0.9568     1.0000     0.0432     0.9871     0.9871    -0.0000
 11 H      0.9758     1.0000     0.0242     1.0512     1.0512     0.0000
 12 H      0.8984     1.0000     0.1016     1.0087     1.0087    -0.0000
 13 H      0.8978     1.0000     0.1022     1.0095     1.0095    -0.0000
 14 Cl    17.6406    17.0000    -0.6406     0.6481     0.6481    -0.0000

  Mayer bond orders larger than 0.100000
B(  0-C ,  1-C ) :   1.0518 B(  0-C ,  5-H ) :   0.9574 B(  0-C ,  6-H ) :   0.9661 
B(  0-C ,  7-H ) :   0.9668 B(  1-C ,  2-C ) :   1.0509 B(  1-C ,  3-C ) :   1.0314 
B(  1-C ,  8-H ) :   0.9102 B(  2-C ,  9-H ) :   0.9669 B(  2-C , 10-H ) :   0.9673 
B(  2-C , 11-H ) :   0.9546 B(  3-C ,  4-Br) :   0.4985 B(  3-C , 12-H ) :   0.9504 
B(  3-C , 13-H ) :   0.9501 B(  3-C , 14-Cl) :   0.3292 


------------------
HIRSHFELD ANALYSIS
------------------

Total integrated alpha density =     43.003045773
Total integrated beta density  =     43.003045773

  ATOM     CHARGE      SPIN    
   0 C   -0.082484    0.000000
   1 C   -0.007178    0.000000
   2 C   -0.081853    0.000000
   3 C    0.064509    0.000000
   4 Br  -0.539868    0.000000
   5 H    0.008072    0.000000
   6 H    0.025636    0.000000
   7 H    0.025149    0.000000
   8 H    0.022359    0.000000
   9 H    0.025058    0.000000
  10 H    0.026352    0.000000
  11 H    0.006289    0.000000
  12 H    0.038541    0.000000
  13 H    0.038390    0.000000
  14 Cl  -0.575064    0.000000

  TOTAL  -1.006092    0.000000

-------
TIMINGS
-------

Total SCF time: 0 days 0 hours 0 min 12 sec 

Total time                  ....      12.364 sec
Sum of individual times     ....      12.112 sec  ( 98.0%)

Fock matrix formation       ....      11.265 sec  ( 91.1%)
  Split-RI-J                ....       1.603 sec  ( 14.2% of F)
  Chain of spheres X        ....       6.284 sec  ( 55.8% of F)
  XC integration            ....       0.560 sec  (  5.0% of F)
    Basis function eval.    ....       0.221 sec  ( 39.5% of XC)
    Density eval.           ....       0.099 sec  ( 17.7% of XC)
    XC-Functional eval.     ....       0.045 sec  (  8.1% of XC)
    XC-Potential eval.      ....       0.157 sec  ( 28.0% of XC)
Diagonalization             ....       0.013 sec  (  0.1%)
Density matrix formation    ....       0.003 sec  (  0.0%)
Population analysis         ....       0.037 sec  (  0.3%)
Initial guess               ....       0.154 sec  (  1.2%)
Orbital Transformation      ....       0.000 sec  (  0.0%)
Orbital Orthonormalization  ....       0.000 sec  (  0.0%)
DIIS solution               ....       0.004 sec  (  0.0%)
SOSCF solution              ....       0.009 sec  (  0.1%)
Grid generation             ....       0.627 sec  (  5.1%)


-------------------------------------------------------------------------------
                          DFT DISPERSION CORRECTION                            
                                                                               
                              DFTD3 V3.1  Rev 1                                
                          USING Becke-Johnson damping                          
-------------------------------------------------------------------------------
The PBE0 functional is recognized
Active option DFTDOPT                   ...         4   

molecular C6(AA) [au] = 3073.048387 


            DFT-D V3
 parameters
 s6 scaling factor         :     1.0000 
 a1 scaling factor         :     0.4145 
 s8 scaling factor         :     1.2177 
 a2 scaling factor         :     4.8593 
 ad hoc parameters k1-k3   :    16.0000     1.3333    -4.0000 

 Edisp/kcal,au: -8.114897190227  -0.012931910449 
 E6   /kcal   :  -4.998812804 
 E8   /kcal   :  -3.116084387 
 % E8         :  38.399554714 

-------------------------   ----------------
Dispersion correction           -0.012931910
-------------------------   ----------------


-------------------------   --------------------
FINAL SINGLE POINT ENERGY     -3191.142383810787
-------------------------   --------------------

[1631611229.153964] [comp0808:31202:0]            sys.c:618  UCX  ERROR shmget(size=2097152 flags=0xfb0) for mm_recv_desc failed: Operation not permitted, please check shared memory limits by 'ipcs -l'
[1631611229.162869] [comp0808:31200:0]            sys.c:618  UCX  ERROR shmget(size=2097152 flags=0xfb0) for mm_recv_desc failed: Operation not permitted, please check shared memory limits by 'ipcs -l'
[1631611229.174321] [comp0808:31201:0]            sys.c:618  UCX  ERROR shmget(size=2097152 flags=0xfb0) for mm_recv_desc failed: Operation not permitted, please check shared memory limits by 'ipcs -l'
[1631611229.181326] [comp0808:31203:0]            sys.c:618  UCX  ERROR shmget(size=2097152 flags=0xfb0) for mm_recv_desc failed: Operation not permitted, please check shared memory limits by 'ipcs -l'
[1631611229.196965] [comp0808:31200:0]            sys.c:618  UCX  ERROR shmget(size=2097152 flags=0xb80) for ucp_am_bufs failed: Operation not permitted, please check shared memory limits by 'ipcs -l'
[1631611229.197467] [comp0808:31202:0]            sys.c:618  UCX  ERROR shmget(size=2097152 flags=0xb80) for ucp_am_bufs failed: Operation not permitted, please check shared memory limits by 'ipcs -l'


           ************************************************************
           *        Program running with 4 parallel MPI-processes     *
           *              working on a common directory               *
           ************************************************************
[1631611229.201141] [comp0808:31201:0]            sys.c:618  UCX  ERROR shmget(size=2097152 flags=0xb80) for ucp_am_bufs failed: Operation not permitted, please check shared memory limits by 'ipcs -l'
------------------------------------------------------------------------------
                         ORCA SCF GRADIENT CALCULATION
------------------------------------------------------------------------------

[1631611229.483861] [comp0808:31203:0]            sys.c:618  UCX  ERROR shmget(size=2097152 flags=0xb80) for ucp_am_bufs failed: Operation not permitted, please check shared memory limits by 'ipcs -l'
Gradient of the Kohn-Sham DFT energy:
Kohn-Sham wavefunction type      ... RKS
Hartree-Fock exchange scaling    ...    0.250
Number of operators              ...    1
Number of atoms                  ...   15
Basis set dimensions             ...  151
Integral neglect threshold       ... 2.5e-11
Integral primitive cutoff        ... 2.5e-12

Nuclear repulsion gradient       ... done
One Electron Gradient            ... done
Pre-screening matrix             ... done
RI-J gradient                    ... done
COSX-gradient                    ... done
Exchange-correlation gradient    ... done
Dispersion correction            ... done

------------------
CARTESIAN GRADIENT
------------------

   1   C   :   -0.000068012   -0.000036625   -0.000061253
   2   C   :   -0.000064787    0.000006093   -0.000010439
   3   C   :   -0.000013582   -0.000069312   -0.000099197
   4   C   :   -0.000151956   -0.000129302   -0.000087932
   5   Br  :   -0.000100061    0.000014511   -0.000117670
   6   H   :   -0.000064537   -0.000058661   -0.000016039
   7   H   :   -0.000033420   -0.000020442    0.000009550
   8   H   :   -0.000103866   -0.000032182    0.000009542
   9   H   :   -0.000109303   -0.000042536   -0.000035707
  10   H   :   -0.000036167   -0.000040261   -0.000084545
  11   H   :   -0.000006188   -0.000007541   -0.000053423
  12   H   :   -0.000019220   -0.000070470   -0.000071154
  13   H   :   -0.000040462   -0.000044431   -0.000116103
  14   H   :   -0.000107261    0.000000446   -0.000093733
  15   Cl  :    0.000031120    0.000038005   -0.000036230

Difference to translation invariance:
           :   -0.0008877015   -0.0004927083   -0.0008643314

Norm of the cartesian gradient     ...    0.0004488532
RMS gradient                       ...    0.0000669111
MAX gradient                       ...    0.0001519557

-------
TIMINGS
-------

Total SCF gradient time            ...        2.594 sec

One electron gradient       ....       0.027 sec  (  1.0%)
Prescreening matrices       ....       0.100 sec  (  3.9%)
RI-J Coulomb gradient       ....       0.265 sec  ( 10.2%)
COSX gradient               ....       0.921 sec  ( 35.5%)
XC gradient                 ....       0.572 sec  ( 22.0%)
CPCM gradient               ....       0.276 sec  ( 10.6%)
   A-Matrix (El+Nuc)        ....       0.009 sec  (  0.4%)
   Potential                ....       0.267 sec  ( 10.3%)
[1631611234.094858] [comp0808:31233:0]            sys.c:618  UCX  ERROR shmget(size=2097152 flags=0xfb0) for mm_recv_desc failed: Operation not permitted, please check shared memory limits by 'ipcs -l'
[1631611234.103847] [comp0808:31235:0]            sys.c:618  UCX  ERROR shmget(size=2097152 flags=0xfb0) for mm_recv_desc failed: Operation not permitted, please check shared memory limits by 'ipcs -l'
[1631611234.115469] [comp0808:31234:0]            sys.c:618  UCX  ERROR shmget(size=2097152 flags=0xfb0) for mm_recv_desc failed: Operation not permitted, please check shared memory limits by 'ipcs -l'
[1631611234.118566] [comp0808:31236:0]            sys.c:618  UCX  ERROR shmget(size=2097152 flags=0xfb0) for mm_recv_desc failed: Operation not permitted, please check shared memory limits by 'ipcs -l'
[1631611234.136563] [comp0808:31235:0]            sys.c:618  UCX  ERROR shmget(size=2097152 flags=0xb80) for ucp_am_bufs failed: Operation not permitted, please check shared memory limits by 'ipcs -l'
[1631611234.136583] [comp0808:31233:0]            sys.c:618  UCX  ERROR shmget(size=2097152 flags=0xb80) for ucp_am_bufs failed: Operation not permitted, please check shared memory limits by 'ipcs -l'


           ************************************************************
           *        Program running with 4 parallel MPI-processes     *
           *              working on a common directory               *
           ************************************************************
[1631611234.155826] [comp0808:31234:0]            sys.c:618  UCX  ERROR shmget(size=2097152 flags=0xb80) for ucp_am_bufs failed: Operation not permitted, please check shared memory limits by 'ipcs -l'

-------------------------------------------------------------------------------
                               ORCA SCF HESSIAN
-------------------------------------------------------------------------------

Hessian of the Kohn-Sham DFT energy:
Kohn-Sham wavefunction type                      ... RKS
Hartree-Fock exchange scaling                    ...    0.250
Number of operators                              ...    1
Number of atoms                                  ...   15
Basis set dimensions                             ...  151
Integral neglect threshold                       ... 2.5e-11
Integral primitive cutoff                        ... 2.5e-12

Setting up DFT Hessian calculations              ... 
Electron density on the grid                     ... found on disk
Electron density on the final grid               ... found on disk
Building xc-kernel on the grid                   ... done   (      0.0 sec)
Building xc-kernel on the final grid             ... done   (      0.0 sec)
[1631611234.211295] [comp0808:31236:0]            sys.c:618  UCX  ERROR shmget(size=2097152 flags=0xb80) for ucp_am_bufs failed: Operation not permitted, please check shared memory limits by 'ipcs -l'
                                                     done   (      0.1 sec)

Nuclear repulsion Hessian                        ... done   (      0.0 sec)

----------------------------------------------
Forming right-hand sides of CP-SCF equations     ...
----------------------------------------------
One electron integral derivatives                ... done   (      6.4 sec)
Transforming the overlap derivative matrices     ... done   (      0.0 sec)
[1631611241.981306] [comp0808:31235:0]            sys.c:618  UCX  ERROR shmget(size=6291456 flags=0xfb0) for mm_recv_desc failed: Operation not permitted, please check shared memory limits by 'ipcs -l'
[1631611241.983492] [comp0808:31236:0]            sys.c:618  UCX  ERROR shmget(size=6291456 flags=0xfb0) for mm_recv_desc failed: Operation not permitted, please check shared memory limits by 'ipcs -l'
[1631611241.988268] [comp0808:31233:0]            sys.c:618  UCX  ERROR shmget(size=6291456 flags=0xfb0) for mm_recv_desc failed: Operation not permitted, please check shared memory limits by 'ipcs -l'
[1631611241.990177] [comp0808:31234:0]            sys.c:618  UCX  ERROR shmget(size=6291456 flags=0xfb0) for mm_recv_desc failed: Operation not permitted, please check shared memory limits by 'ipcs -l'
Adding tr(S(x)F(y) C-PCM term to the hessian     ... done   (      1.0 sec)
Making the Q(x) pseudodensities                  ... done   (      0.0 sec)
Adding the E*S(x)*S(y) terms to the Hessian      ... done   (      0.0 sec)
Calculating energy weighted overlap derivatives  ... done   (      0.0 sec)
Two electron integral derivatives (RI)           ... done   (      3.0 sec)
Exchange-correlation integral derivatives        ... done   (      5.8 sec)
tr(F(y)Q(x)) contribution to the Hessian         ... done   (      0.0 sec)
Response fock operator R(S(x)) (RIJCOSX)         ... done   (      3.9 sec)
XC Response fock operator R(S(x))                ... done   (      2.1 sec)
tr(F(y)S(x)) contribution to the Hessian         ... done   (      0.0 sec)
Transforming and finalizing RHSs                 ... done   (      0.0 sec)

----------------------------------------------
Solving the CP-SCF equations (RIJCOSX)           ...
----------------------------------------------
     CP-SCF ITERATION   0: 
     CP-SCF ITERATION   1:      0.000786709030
     CP-SCF ITERATION   2:      0.000123522114
[...]
     16       0.009324   0.103915  -0.017879  -0.126927  -0.424091  -0.369654
     17       0.027816  -0.082218  -0.013822   0.070671   0.282262   0.252621
     18       0.205545  -0.046883   0.151088   0.115097  -0.145665  -0.174895
     19      -0.281349   0.040938  -0.108718  -0.072018   0.205489   0.204308
     20      -0.147169   0.037618   0.456887   0.463773   0.174834   0.091683
     21       0.293168  -0.015149   0.361492   0.368699   0.015767  -0.008124
     22      -0.057457   0.102747   0.261845   0.155530  -0.305103  -0.308961
     23      -0.162969   0.104951   0.069678  -0.025514  -0.265762  -0.257447
     24      -0.060041  -0.051931   0.058721   0.019782   0.015364  -0.076344
     25      -0.055587  -0.036452  -0.057319  -0.001863  -0.019799  -0.047580
     26       0.032450   0.029068   0.031317  -0.042015   0.015415   0.051269
     27       0.040462   0.049529  -0.212754   0.197310   0.116639  -0.169463
     28       0.181996   0.062867  -0.375264   0.373425   0.103507  -0.186755
     29      -0.322784   0.130169   0.008106  -0.096977   0.323966  -0.345855
     30      -0.198240   0.011037   0.284369  -0.292909  -0.051955   0.136000
     31       0.072222  -0.007697  -0.309164   0.315356  -0.036078  -0.066851
     32      -0.353810   0.077064  -0.209841   0.240061  -0.299064   0.267897
     33       0.003696   0.123047   0.014540  -0.097250   0.488890  -0.486705
     34       0.402504  -0.116302   0.228452  -0.224677   0.043916   0.043182
     35      -0.190850   0.034316  -0.105848   0.124900  -0.091233   0.049763
     36       0.020457   0.097598   0.005462  -0.009004   0.008857   0.006773
     37       0.125047   0.619038   0.018497  -0.047330   0.023058   0.093480
     38      -0.045203  -0.194937  -0.001670   0.013362  -0.001907  -0.034477
     39       0.129951   0.643602  -0.005298  -0.050211  -0.005208   0.101212
     40       0.020275   0.118714  -0.005859  -0.012345  -0.008551   0.010195
     41       0.006224   0.059941  -0.002870  -0.005779  -0.002311   0.009198
     42       0.000364   0.000065  -0.000109  -0.000174  -0.000259   0.000139
     43       0.000029  -0.000160   0.000108   0.000054   0.000200   0.000065
     44      -0.000788  -0.000407  -0.000051   0.000457  -0.000119  -0.000072
                 36         37         38         39         40         41    
      0       0.027498   0.037362   0.001901  -0.001665  -0.021711  -0.031690
      1      -0.012138  -0.016759   0.004158  -0.004239  -0.065096  -0.050739
      2      -0.000565  -0.000986   0.007944   0.004298   0.063134  -0.062650
      3      -0.001290  -0.001042  -0.005586   0.001001  -0.000157  -0.000215
      4       0.001585  -0.000849  -0.044136  -0.001107   0.000206  -0.002914
      5      -0.000502  -0.000332  -0.068594  -0.001892   0.002508  -0.004089
      6       0.014014  -0.010664  -0.000218   0.087368  -0.005508   0.006924
      7      -0.029695   0.022261   0.005574   0.004529   0.000073   0.026597
      8       0.024302  -0.018509   0.006943  -0.031798   0.001986   0.022602
      9       0.000039  -0.000214  -0.000187  -0.000537   0.000289   0.000098
     10       0.000028  -0.000169  -0.000590  -0.000184   0.000514  -0.000080
     11      -0.000040   0.000162  -0.000897   0.000106  -0.000266  -0.000084
     12      -0.000002   0.000022   0.000122   0.000000  -0.000001   0.000004
     13      -0.000003   0.000007   0.000075  -0.000001  -0.000001   0.000007
     14       0.000009  -0.000034  -0.000129  -0.000003  -0.000000  -0.000001
     15       0.009513   0.011723  -0.004456  -0.000713  -0.006719   0.010150
     16       0.169119   0.227921  -0.047743  -0.006401  -0.110841   0.418396
     17       0.262748   0.353344  -0.073857  -0.008931  -0.143755   0.643369
     18      -0.240237  -0.321537  -0.017835   0.027456   0.448943   0.322271
     19      -0.248862  -0.331198  -0.020416   0.029499   0.449800   0.327515
     20       0.030599   0.041053   0.004876  -0.003189  -0.044829  -0.044285
     21      -0.085725  -0.118220  -0.004997  -0.012676  -0.185025   0.047135
     22       0.221318   0.298531   0.020511   0.028893   0.438721  -0.133959
     23      -0.285479  -0.382911  -0.023361  -0.038085  -0.566454   0.155280
     24       0.000653   0.001799   0.062752   0.000048  -0.000734   0.001894
     25      -0.003992   0.009440   0.527833   0.012337  -0.011753   0.029671
     26      -0.003816   0.014333   0.831783   0.020390  -0.021187   0.044631
     27      -0.445901   0.333080   0.027468  -0.614925   0.040162   0.079080
     28       0.231300  -0.174075  -0.010966   0.333066  -0.021059  -0.036940
     29       0.118454  -0.086449  -0.006831   0.159154  -0.010026  -0.017633
     30       0.326310  -0.240919  -0.015095  -0.462085   0.028612  -0.126049
     31       0.317170  -0.235049  -0.011095  -0.472231   0.031041  -0.122420
     32      -0.053217   0.040113   0.003088   0.074488  -0.005344   0.022250
     33      -0.043548   0.032799  -0.009943   0.033492  -0.002907  -0.034889
     34      -0.207920   0.154371  -0.047193   0.088586  -0.007218  -0.160674
     35      -0.346205   0.258932  -0.074899   0.145114  -0.012506  -0.274858
     36       0.001099  -0.005236   0.002781   0.003754  -0.002575   0.001270
     37      -0.000285   0.002959  -0.002066  -0.002036   0.001188  -0.000101
     38       0.000449  -0.002486   0.000634   0.001497  -0.000541   0.000705
     39      -0.000594   0.003509  -0.001710  -0.000780   0.002612   0.000010
     40       0.000321  -0.005160   0.001612   0.001594  -0.004233   0.000513
     41      -0.000186   0.001604  -0.001545  -0.001042   0.001653  -0.000746
     42      -0.000032  -0.000053   0.000003  -0.000009   0.000014  -0.000133
     43       0.000038  -0.000049   0.000015  -0.000037   0.000019   0.000023
     44      -0.000012  -0.000015   0.000027  -0.000005   0.000010  -0.000050
                  42         43         44    
      0       0.013001   0.000589   0.000291
      1       0.020436  -0.000450   0.000075
      2       0.024576   0.000410  -0.000151
      3       0.000921   0.002419  -0.000196
      4       0.006184   0.002538   0.000123
      5       0.009629  -0.000281  -0.000032
      6       0.016964  -0.000523  -0.000126
      7       0.064890   0.000678  -0.000245
      8       0.053998  -0.000086   0.000179
      9       0.000059  -0.045542  -0.070849
     10       0.000150  -0.045977   0.066499
     11       0.000226   0.002275  -0.033723
     12      -0.000013   0.000001   0.000103
     13      -0.000012   0.000094  -0.000098
     14       0.000006   0.000186   0.000040
     15      -0.002051  -0.001238   0.000594
     16      -0.167158  -0.000089   0.000131
     17      -0.255365  -0.000238  -0.000099
     18      -0.133253  -0.001821  -0.000265
     19      -0.134134  -0.000281  -0.000941
     20       0.017866   0.000314   0.000262
     21      -0.019032  -0.002773   0.001795
     22       0.051354   0.005068  -0.000907
     23      -0.060242  -0.005624   0.000908
     24      -0.007331  -0.000496   0.000001
     25      -0.063640  -0.002277  -0.000372
     26      -0.102824  -0.003124  -0.000330
     27       0.191252   0.006925   0.000788
     28      -0.092335  -0.004100  -0.001566
     29      -0.042995  -0.000862   0.000544
     30      -0.311053  -0.000826   0.000968
     31      -0.304847  -0.001853   0.000365
     32       0.055939   0.001058   0.000063
     33      -0.086771  -0.000166  -0.000179
     34      -0.384341  -0.001788  -0.000275
     35      -0.667598  -0.000488   0.000693
     36      -0.003674   0.679760   0.657839
     37       0.000713  -0.124831  -0.112122
     38      -0.000511   0.188350   0.181845
     39       0.000901  -0.170768   0.167816
     40      -0.003992   0.640462  -0.662094
     41       0.001339  -0.207721   0.210918
     42       0.000093   0.000124   0.000200
     43       0.000204  -0.000081  -0.000178
     44       0.000006  -0.000398   0.000110


-----------
IR SPECTRUM
-----------

 Mode    freq (cm**-1)   T**2         TX         TY         TZ
-------------------------------------------------------------------
   7:        40.14    1.624923  ( -0.870045   0.747675  -0.555811)
   8:       126.37   13.185503  ( -2.681568  -2.131849   1.204124)
   9:       158.39   11.807480  (  1.221095   2.305795   2.236004)
  10:       163.79   10.094736  (  2.124859  -2.162950   0.949399)
  11:       193.49    9.011680  (  2.063455   2.092728  -0.611821)
  12:       241.57    3.038242  ( -0.876564   0.783218  -1.287030)
  13:       258.28   10.505836  ( -0.507415   1.351764   2.901913)
  14:       364.97    6.326647  (  1.596376   0.901359  -1.722144)
  15:       395.53    1.538985  ( -0.874629   0.694035  -0.540670)
  16:       503.77  142.581841  ( -1.238942   4.428971  11.019577)
  17:       824.01   16.610272  ( -2.685167  -3.064841   0.083072)
  18:       846.30    6.366267  ( -1.735680   1.529638  -1.006922)
  19:       915.43    3.750298  ( -1.192920   1.413733  -0.573235)
  20:       947.11    5.141168  (  0.199578  -0.225609   2.247318)
  21:       950.51  108.825851  ( -2.292680   2.902839   9.754127)
  22:       973.62    0.628180  (  0.530643   0.538089  -0.238869)
  23:       980.93   23.903923  (  3.501128   3.281244  -0.937795)
  24:      1082.16   35.042516  (  2.701454   0.307623  -5.258329)
  25:      1190.92    0.236190  ( -0.360322   0.286631  -0.155564)
  26:      1206.72    4.658560  (  0.578741  -0.474732  -2.024413)
  27:      1306.33    8.025097  ( -1.017399   0.188096   2.637161)
  28:      1314.53    0.317888  (  0.353695  -0.351064  -0.263709)
  29:      1364.60   15.173900  (  2.841505  -2.375939   1.206095)
  30:      1370.87    8.441776  (  1.999828   1.560677  -1.416598)
  31:      1413.88    5.621602  ( -0.600834   0.472349   2.244435)
  32:      1437.42    0.438528  (  0.375039  -0.367708   0.403317)
  33:      1449.17   16.079820  ( -0.990752   0.847897   3.792005)
  34:      1455.40    0.413260  (  0.270162  -0.582984  -0.020040)
  35:      1473.23   17.699854  ( -2.903668  -3.010316   0.454493)
  36:      3047.96   58.362066  (  4.658359  -5.375985   2.785775)
  37:      3051.35   28.724462  (  4.463929   2.536622  -1.537318)
  38:      3084.33   13.811648  (  0.632886  -1.227921  -3.450118)
  39:      3141.52   34.416678  (  5.689426   0.479613  -1.347993)
  40:      3144.57   36.967396  ( -1.892081  -4.487831   3.639616)
  41:      3162.91    4.008604  ( -0.630146  -1.225499  -1.452471)
  42:      3166.27   16.264639  (  0.807609   2.490311   3.067696)
  43:      3250.55    6.514658  ( -1.325631  -0.456363   2.132860)
  44:      3386.13    6.128291  (  1.756088  -1.565039   0.771427)

The first frequency considered to be a vibration is 7
The total number of vibrations considered is 38


--------------------------
THERMOCHEMISTRY AT 298.15K
--------------------------

Temperature         ... 298.15 K
Pressure            ... 1.00 atm
Total Mass          ... 172.47 AMU

Throughout the following assumptions are being made:
  (1) The electronic state is orbitally nondegenerate
  (2) There are no thermally accessible electronically excited states
  (3) Hindered rotations indicated by low frequency modes are not
      treated as such but are treated as vibrations and this may
      cause some error
  (4) All equations used are the standard statistical mechanics
      equations for an ideal gas
  (5) All vibrations are strictly harmonic

freq.      40.14  E(vib)   ...       0.54 
freq.     126.37  E(vib)   ...       0.43 
freq.     158.39  E(vib)   ...       0.39 
freq.     163.79  E(vib)   ...       0.39 
freq.     193.49  E(vib)   ...       0.36 
freq.     241.57  E(vib)   ...       0.31 
freq.     258.28  E(vib)   ...       0.30 
freq.     364.97  E(vib)   ...       0.22 
freq.     395.53  E(vib)   ...       0.20 
freq.     503.77  E(vib)   ...       0.14 
freq.     824.01  E(vib)   ...       0.05 
freq.     846.30  E(vib)   ...       0.04 
freq.     915.43  E(vib)   ...       0.03 
freq.     947.11  E(vib)   ...       0.03 
freq.     950.51  E(vib)   ...       0.03 
freq.     973.62  E(vib)   ...       0.03 
freq.     980.93  E(vib)   ...       0.02 
freq.    1082.16  E(vib)   ...       0.02 
freq.    1190.92  E(vib)   ...       0.01 
freq.    1206.72  E(vib)   ...       0.01 
freq.    1306.33  E(vib)   ...       0.01 
freq.    1314.53  E(vib)   ...       0.01 
freq.    1364.60  E(vib)   ...       0.01 
freq.    1370.87  E(vib)   ...       0.01 
freq.    1413.88  E(vib)   ...       0.00 
freq.    1437.42  E(vib)   ...       0.00 
freq.    1449.17  E(vib)   ...       0.00 
freq.    1455.40  E(vib)   ...       0.00 
freq.    1473.23  E(vib)   ...       0.00 
freq.    3047.96  E(vib)   ...       0.00 
freq.    3051.35  E(vib)   ...       0.00 
freq.    3084.33  E(vib)   ...       0.00 
freq.    3141.52  E(vib)   ...       0.00 
freq.    3144.57  E(vib)   ...       0.00 
freq.    3162.91  E(vib)   ...       0.00 
freq.    3166.27  E(vib)   ...       0.00 
freq.    3250.55  E(vib)   ...       0.00 
freq.    3386.13  E(vib)   ...       0.00 

------------
INNER ENERGY
------------

The inner energy is: U= E(el) + E(ZPE) + E(vib) + E(rot) + E(trans)
    E(el)   - is the total energy from the electronic structure calculation
              = E(kin-el) + E(nuc-el) + E(el-el) + E(nuc-nuc)
    E(ZPE)  - the the zero temperature vibrational energy from the frequency calculation
    E(vib)  - the the finite temperature correction to E(ZPE) due to population
              of excited vibrational states
    E(rot)  - is the rotational thermal energy
    E(trans)- is the translational thermal energy

Summary of contributions to the inner energy U:
Electronic energy                ...  -3191.14238579 Eh
Zero point energy                ...      0.12162004 Eh      76.32 kcal/mol
Thermal vibrational correction   ...      0.00570304 Eh       3.58 kcal/mol
Thermal rotational correction    ...      0.00141627 Eh       0.89 kcal/mol
Thermal translational correction ...      0.00141627 Eh       0.89 kcal/mol
-----------------------------------------------------------------------
Total thermal energy                  -3191.01223017 Eh


Summary of corrections to the electronic energy:
(perhaps to be used in another calculation)
Total thermal correction                  0.00853558 Eh       5.36 kcal/mol
Non-thermal (ZPE) correction              0.12162004 Eh      76.32 kcal/mol
-----------------------------------------------------------------------
Total correction                          0.13015562 Eh      81.67 kcal/mol


--------
ENTHALPY
--------

The enthalpy is H = U + kB*T
                kB is Boltzmann's constant
Total free energy                 ...  -3191.01223017 Eh 
Thermal Enthalpy correction       ...      0.00094421 Eh       0.59 kcal/mol
-----------------------------------------------------------------------
Total Enthalpy                    ...  -3191.01128596 Eh


Note: Only C1 symmetry has been detected, increase convergence thresholds 
      if your molecule has a higher symmetry. Symmetry factor of 1.0 is   
      used for the rotational entropy correction. 
 

Note: Rotational entropy computed according to Herzberg 
Infrared and Raman Spectra, Chapter V,1, Van Nostrand Reinhold, 1945 
Point Group:  C1, Symmetry Number:   1  
Rotational constants in cm-1:     0.076014     0.022957     0.020013 

Vibrational entropy computed according to the QRRHO of S. Grimme
Chem.Eur.J. 2012 18 9955


-------
ENTROPY
-------

The entropy contributions are T*S = T*(S(el)+S(vib)+S(rot)+S(trans))
     S(el)   - electronic entropy
     S(vib)  - vibrational entropy
     S(rot)  - rotational entropy
     S(trans)- translational entropy
The entropies will be listed as mutliplied by the temperature to get
units of energy

Electronic entropy                ...      0.00000000 Eh      0.00 kcal/mol
Vibrational entropy               ...      0.01015776 Eh      6.37 kcal/mol
Rotational entropy                ...      0.01435556 Eh      9.01 kcal/mol
Translational entropy             ...      0.01964318 Eh     12.33 kcal/mol
-----------------------------------------------------------------------
Final entropy term                ...      0.04415650 Eh     27.71 kcal/mol

In case the symmetry of your molecule has not been determined correctly
or in case you have a reason to use a different symmetry number we print 
out the resulting rotational entropy values for sn=1,12 :
 --------------------------------------------------------
|  sn= 1 | S(rot)=       0.01435556 Eh      9.01 kcal/mol|
|  sn= 2 | S(rot)=       0.01370111 Eh      8.60 kcal/mol|
|  sn= 3 | S(rot)=       0.01331827 Eh      8.36 kcal/mol|
|  sn= 4 | S(rot)=       0.01304665 Eh      8.19 kcal/mol|
|  sn= 5 | S(rot)=       0.01283596 Eh      8.05 kcal/mol|
|  sn= 6 | S(rot)=       0.01266382 Eh      7.95 kcal/mol|
|  sn= 7 | S(rot)=       0.01251827 Eh      7.86 kcal/mol|
|  sn= 8 | S(rot)=       0.01239219 Eh      7.78 kcal/mol|
|  sn= 9 | S(rot)=       0.01228098 Eh      7.71 kcal/mol|
|  sn=10 | S(rot)=       0.01218151 Eh      7.64 kcal/mol|
|  sn=11 | S(rot)=       0.01209152 Eh      7.59 kcal/mol|
|  sn=12 | S(rot)=       0.01200936 Eh      7.54 kcal/mol|
 --------------------------------------------------------


-------------------
GIBBS FREE ENERGY
-------------------

The Gibbs free energy is G = H - T*S

Total enthalpy                    ...  -3191.01128596 Eh 
Total entropy correction          ...     -0.04415650 Eh    -27.71 kcal/mol
-----------------------------------------------------------------------
Final Gibbs free energy         ...  -3191.05544245 Eh

For completeness - the Gibbs free energy minus the electronic energy
G-E(el)                           ...      0.08694333 Eh     54.56 kcal/mol

[1631611387.851839] [comp0808:31399:0]            sys.c:618  UCX  ERROR shmget(size=2097152 flags=0xfb0) for mm_recv_desc failed: Operation not permitted, please check shared memory limits by 'ipcs -l'
[1631611387.855564] [comp0808:31401:0]            sys.c:618  UCX  ERROR shmget(size=2097152 flags=0xfb0) for mm_recv_desc failed: Operation not permitted, please check shared memory limits by 'ipcs -l'
[1631611387.868122] [comp0808:31402:0]            sys.c:618  UCX  ERROR shmget(size=2097152 flags=0xfb0) for mm_recv_desc failed: Operation not permitted, please check shared memory limits by 'ipcs -l'
[1631611387.868846] [comp0808:31400:0]            sys.c:618  UCX  ERROR shmget(size=2097152 flags=0xfb0) for mm_recv_desc failed: Operation not permitted, please check shared memory limits by 'ipcs -l'
[1631611387.888230] [comp0808:31399:0]            sys.c:618  UCX  ERROR shmget(size=2097152 flags=0xb80) for ucp_am_bufs failed: Operation not permitted, please check shared memory limits by 'ipcs -l'
[1631611387.889002] [comp0808:31400:0]            sys.c:618  UCX  ERROR shmget(size=2097152 flags=0xb80) for ucp_am_bufs failed: Operation not permitted, please check shared memory limits by 'ipcs -l'
[1631611387.889784] [comp0808:31402:0]            sys.c:618  UCX  ERROR shmget(size=2097152 flags=0xb80) for ucp_am_bufs failed: Operation not permitted, please check shared memory limits by 'ipcs -l'
[1631611387.890450] [comp0808:31401:0]            sys.c:618  UCX  ERROR shmget(size=2097152 flags=0xb80) for ucp_am_bufs failed: Operation not permitted, please check shared memory limits by 'ipcs -l'

Timings for individual modules:

Sum of individual times         ...      173.941 sec (=   2.899 min)
GTO integral calculation        ...        2.348 sec (=   0.039 min)   1.3 %
SCF iterations                  ...       21.946 sec (=   0.366 min)  12.6 %
SCF Gradient evaluation         ...        4.901 sec (=   0.082 min)   2.8 %
Geometry relaxation             ...        1.778 sec (=   0.030 min)   1.0 %
Analytical frequency calculation...      142.968 sec (=   2.383 min)  82.2 %
                             ****ORCA TERMINATED NORMALLY****
TOTAL RUN TIME: 0 days 0 hours 2 minutes 56 seconds 959 msec
