
                                 *****************
                                 * O   R   C   A *
                                 *****************

           --- An Ab Initio, DFT and Semiempirical electronic structure package ---

                  #######################################################
                  #                        -***-                        #
                  #          Department of theory and spectroscopy      #
                  #               Directorship: Frank Neese             #
                  #        Max Planck Institute fuer Kohlenforschung    #
                  #                Kaiser Wilhelm Platz 1               #
                  #                 D-45470 Muelheim/Ruhr               #
                  #                      Germany                        #
                  #                                                     #
                  #                  All rights reserved                #
                  #                        -***-                        #
                  #######################################################


                         Program Version 4.2.1 -  RELEASE  -


 With contributions from (in alphabetic order):
   Daniel Aravena         : Magnetic Suceptibility
   Michael Atanasov       : Ab Initio Ligand Field Theory (pilot matlab implementation)
   Alexander A. Auer      : GIAO ZORA, VPT2
   Ute Becker             : Parallelization
   Giovanni Bistoni       : ED, misc. LED, open-shell LED, HFLD
   Martin Brehm           : Molecular dynamics
   Dmytro Bykov           : SCF Hessian
   Vijay G. Chilkuri      : MRCI spin determinant printing, contributions to CSF-ICE
   Dipayan Datta          : RHF DLPNO-CCSD density
   Achintya Kumar Dutta   : EOM-CC, STEOM-CC
   Dmitry Ganyushin       : Spin-Orbit,Spin-Spin,Magnetic field MRCI
   Miquel Garcia          : C-PCM Hessian, Gaussian charge scheme
   Yang Guo               : DLPNO-NEVPT2, CIM, IAO-localization
   Andreas Hansen         : Spin unrestricted coupled pair/coupled cluster methods
   Benjamin Helmich-Paris : CASSCF linear response (MC-RPA)
   Lee Huntington         : MR-EOM, pCC
   Robert Izsak           : Overlap fitted RIJCOSX, COSX-SCS-MP3, EOM
   Christian Kollmar      : KDIIS, OOCD, Brueckner-CCSD(T), CCSD density
   Simone Kossmann        : Meta GGA functionals, TD-DFT gradient, OOMP2, MP2 Hessian
   Martin Krupicka        : AUTO-CI
   Lucas Lang             : DCDCAS
   Dagmar Lenk            : GEPOL surface, SMD
   Dimitrios Liakos       : Extrapolation schemes; Compound Job, initial MDCI parallelization
   Dimitrios Manganas     : Further ROCIS development; embedding schemes
   Dimitrios Pantazis     : SARC Basis sets
   Taras Petrenko         : DFT Hessian,TD-DFT gradient, ASA, ECA, R-Raman, ABS, FL, XAS/XES, NRVS
   Peter Pinski           : DLPNO-MP2, DLPNO-MP2 Gradient
   Christoph Reimann      : Effective Core Potentials
   Marius Retegan         : Local ZFS, SOC
   Christoph Riplinger    : Optimizer, TS searches, QM/MM, DLPNO-CCSD(T), (RO)-DLPNO pert. Triples
   Tobias Risthaus        : Range-separated hybrids, TD-DFT gradient, RPA, STAB
   Michael Roemelt        : Original ROCIS implementation
   Masaaki Saitow         : Open-shell DLPNO-CCSD energy and density
   Barbara Sandhoefer     : DKH picture change effects
   Avijit Sen             : IP-ROCIS
   Kantharuban Sivalingam : CASSCF convergence, NEVPT2, FIC-MRCI
   Bernardo de Souza      : ESD, SOC TD-DFT
   Georgi Stoychev        : AutoAux, RI-MP2 NMR
   Willem Van den Heuvel  : Paramagnetic NMR
   Boris Wezisla          : Elementary symmetry handling
   Frank Wennmohs         : Technical directorship


 We gratefully acknowledge several colleagues who have allowed us to
 interface, adapt or use parts of their codes:
   Stefan Grimme, W. Hujo, H. Kruse,             : VdW corrections, initial TS optimization,
                  C. Bannwarth                     DFT functionals, gCP, sTDA/sTD-DF
   Ed Valeev, F. Pavosevic, A. Kumar             : LibInt (2-el integral package), F12 methods
   Garnet Chan, S. Sharma, J. Yang, R. Olivares  : DMRG
   Ulf Ekstrom                                   : XCFun DFT Library
   Mihaly Kallay                                 : mrcc  (arbitrary order and MRCC methods)
   Andreas Klamt, Michael Diedenhofen            : otool_cosmo (COSMO solvation model)
   Jiri Pittner, Ondrej Demel                    : Mk-CCSD
   Frank Weinhold                                : gennbo (NPA and NBO analysis)
   Christopher J. Cramer and Donald G. Truhlar   : smd solvation model
   Lars Goerigk                                  : TD-DFT with DH, B97 family of functionals
   V. Asgeirsson, H. Jonsson                     : NEB implementation
   FAccTs GmbH                                   : IRC, NEB, NEB-TS, Multilevel, MM, QM/MM, CI optimization
   S Lehtola, MJT Oliveira, MAL Marques          : LibXC Library


 Your calculation uses the libint2 library for the computation of 2-el integrals
 For citations please refer to: http://libint.valeyev.net

 Your ORCA version has been built with support for libXC version: 4.2.3
 For citations please refer to: https://tddft.org/programs/libxc/

 This ORCA versions uses:
   CBLAS   interface :  Fast vector & matrix operations
   LAPACKE interface :  Fast linear algebra routines
   SCALAPACK package :  Parallel linear algebra routines


Your calculation utilizes the atom-pairwise dispersion correction
with the Becke-Johnson damping scheme (D3BJ)
Cite in your paper:
S.Grimme, S.Ehrlich, L.Goerigk, J Comput Chem, (2011), 32, 1456–1465 
S.Grimme, J.Antony, S.Ehrlich and H.Krieg, J.Chem.Phys., 132, (2010), 154104 
   

----- Orbital basis set information -----
Your calculation utilizes the basis: def2-SVP
   F. Weigend and R. Ahlrichs, Phys. Chem. Chem. Phys. 7, 3297 (2005).

----- AuxJ basis set information -----
Your calculation utilizes the auxiliary basis: def2/J
   F. Weigend, Phys. Chem. Chem. Phys. 8, 1057 (2006).

cite the ECPs for I  [Def2-ECP] as follows:
Ce-Yb(ecp-28): M. Dolg, H. Stoll, H.Preuss, J. Chem. Phys., 1989, 90, 1730-1734.
Y-Cd(ecp-28), Hf-Hg(ecp-46): D. Andrae,U. Haeussermann, M. Dolg, H. Stoll, H. Preuss, Theor. Chim. Acta, 1990, 77, 123-141.
In-Sb(ecp-28), Tl-Bi(ecp-46): B. Metz, H. Stoll, M. Dolg, J. Chem. Phys., 2000, 113, 2563-2569.
Te-Xe(ecp-28), Po-Rn(ecp-46): K. A. Peterson, D. Figgen, E. Goll, H. Stoll, M. Dolg, J. Chem. Phys., 2003, 119, 11113-11123.
Rb(ecp-28), Cs(ecp-46): T. Leininger, A. Nicklass, W. Kuechle, H. Stoll, M. Dolg, A. Bergner, Chem. Phys. Lett., 1996, 255, 274-280.
Sr(ecp-28), Ba(ecp-46): M. Kaupp, P. V. Schleyer, H. Stoll and H. Preuss, J. Chem. Phys., 1991, 94, 1360-1366.
La(ecp-46): M. Dolg, H. Stoll, A. Savin, H. Preuss, Theor. Chim. Acta, 1989, 75, 173-194.
Lu(ecp-28): X. Cao, M. Dolg, J. Chem. Phys., 2001, 115, 7348-7355.

ECP parameters for I  [Def2-ECP] have been obtained from:
TURBOMOLE (7.0.2)

================================================================================
                                        WARNINGS
                       Please study these warnings very carefully!
================================================================================


WARNING: Geometry Optimization
  ===> : Switching off AutoStart
         For restart on a previous wavefunction, please use MOREAD

INFO   : the flag for use of LIBINT has been found!

================================================================================
                                       INPUT FILE
================================================================================
NAME = manual_356.inp
|  1> ! OptTS Freq PBE0 RIJCOSX D3BJ def2-SVP def2/J CPCM(Acetone)
|  2> %geom
|  3> modify_internal
|  4> { B 2 11 A } end
|  5> end
|  6> %geom
|  7> modify_internal
|  8> { B 2 3 A } end
|  9> end
| 10> %output 
| 11> xyzfile=True 
| 12> end 
| 13> %scf 
| 14> maxiter 250 
| 15> end
| 16> %output
| 17> Print[P_Hirshfeld] = 1
| 18> end
| 19> % maxcore
| 20> 4000
| 21> %geom
| 22> Calc_Hess true
| 23> Recalc_Hess 30
| 24> Trust -0.1
| 25> MaxIter 150
| 26> end
| 27> %pal nprocs 4
| 28> end
| 29> *xyz -1 1
| 30>   C   5.13256404858240     -0.19402183812454     -0.49635643549104
| 31>   C   6.36235387795983     -0.28893589094575      0.38525358767899
| 32>   C   7.07743534164049      0.99564587606444      0.60464045455102
| 33>   I   10.11113955233000      0.02354206221644     -0.90012932849194
| 34>   H   4.69224154120904     -1.18663503068095     -0.67049999294523
| 35>   H   5.38894379415073      0.24297024327507     -1.47497691349926
| 36>   H   4.36894540881260      0.44326580386111     -0.02677739799974
| 37>   H   7.12391249330070     -0.94022090974764     -0.08625388353603
| 38>   H   6.12488545474469     -0.75080144636227      1.35696926936221
| 39>   H   7.23208938111635      1.63868600412016     -0.26673090538716
| 40>   H   7.92382332851851      0.99038707097573      1.29502256213033
| 41>   Cl  5.74618819763465      2.27425399534820      1.73017770362785
| 42> *
| 43> 
| 44>                          ****END OF INPUT****
================================================================================

                       *****************************
                       * Geometry Optimization Run *
                       *****************************

Geometry optimization settings:
Update method            Update   .... Bofill
Choice of coordinates    CoordSys .... Z-matrix Internals
Initial Hessian          InHess   .... Almoef's Model

Convergence Tolerances:
Energy Change            TolE     ....  5.0000e-06 Eh
Max. Gradient            TolMAXG  ....  3.0000e-04 Eh/bohr
RMS Gradient             TolRMSG  ....  1.0000e-04 Eh/bohr
Max. Displacement        TolMAXD  ....  4.0000e-03 bohr
RMS Displacement         TolRMSD  ....  2.0000e-03 bohr
Strict Convergence                ....  False
------------------------------------------------------------------------------
                        ORCA OPTIMIZATION COORDINATE SETUP
------------------------------------------------------------------------------

The optimization will be done in new redundant internal coordinates
Making redundant internal coordinates   ...  (new redundants) Bond  11,  2 is already included
Bond   3,  2 is already included
done
Following TS mode number                ...     0
Evaluating the initial hessian          ...  (Is done on the fly) done
Evaluating the coordinates              ...  done
Calculating the B-matrix                .... done
Calculating the G-matrix                .... done
Diagonalizing the G-matrix              .... done
The first mode is                       ....   45
The number of degrees of freedom        ....   30

    -----------------------------------------------------------------
                    Redundant Internal Coordinates


    -----------------------------------------------------------------
         Definition                    Initial Value    d2E/dq (diagonal element)
    -----------------------------------------------------------------
      1. B(C   1,C   0)                  1.5161         0.000000   
      2. B(C   2,C   1)                  1.4865         0.000000   
      3. B(I   3,C   2)                  3.5232         0.000000   
      4. B(I   3,C   1)                  3.9753         0.000000   
      5. B(H   4,C   0)                  1.0998         0.000000   
      6. B(H   5,C   0)                  1.1020         0.000000   
      7. B(H   6,C   0)                  1.0999         0.000000   
      8. B(H   7,C   1)                  1.1075         0.000000   
      9. B(H   7,I   3)                  3.2426         0.000000   
     10. B(H   8,C   1)                  1.1018         0.000000   
     11. B(H   9,I   3)                  3.3614         0.000000   
     12. B(H   9,C   2)                  1.0939         0.000000   
     13. B(H  10,I   3)                  3.2462         0.000000   
     14. B(H  10,C   2)                  1.0923         0.000000   
     15. B(Cl 11,C   2)                  2.1619         0.000000   
     16. A(C   1,C   0,H   6)          110.5587         0.000000   
     17. A(C   1,C   0,H   5)          110.6404         0.000000   
     18. A(C   1,C   0,H   4)          111.1208         0.000000   
     19. A(H   4,C   0,H   6)          108.2154         0.000000   
     20. A(H   5,C   0,H   6)          108.1132         0.000000   
     21. A(H   4,C   0,H   5)          108.0857         0.000000   
     22. A(C   0,C   1,I   3)          124.8882         0.000000   
     23. A(C   0,C   1,C   2)          114.9562         0.000000   
     24. A(I   3,C   1,H   7)           42.2760         0.000000   
     25. A(I   3,C   1,H   8)          121.4238         0.000000   
     26. A(C   0,C   1,H   8)          111.3620         0.000000   
     27. A(H   7,C   1,H   8)          106.0920         0.000000   
     28. A(C   2,C   1,H   7)          103.9010         0.000000   
     29. A(C   2,C   1,I   3)           61.7155         0.000000   
     30. A(C   0,C   1,H   7)          110.3061         0.000000   
     31. A(C   2,C   1,H   8)          109.6198         0.000000   
     32. A(H   9,C   2,H  10)          113.3752         0.000000   
     33. A(C   1,C   2,H  10)          117.5095         0.000000   
     34. A(I   3,C   2,Cl 11)          156.3152         0.000000   
     35. A(I   3,C   2,H  10)           66.5086         0.000000   
     36. A(I   3,C   2,H   9)           72.5573         0.000000   
     37. A(C   1,C   2,I   3)           96.4737         0.000000   
     38. A(H  10,C   2,Cl 11)           98.6814         0.000000   
     39. A(H   9,C   2,Cl 11)           98.8646         0.000000   
     40. A(C   1,C   2,Cl 11)          106.9604         0.000000   
     41. A(C   1,C   2,H   9)          117.2858         0.000000   
     42. A(C   1,I   3,C   2)           21.8107         0.000000   
     43. D(C   2,C   1,C   0,H   6)    -63.5652         0.000000   
     44. D(H   7,C   1,C   0,H   4)     59.2023         0.000000   
     45. D(I   3,C   1,C   0,H   6)   -135.3458         0.000000   
     46. D(I   3,C   1,C   0,H   4)    104.4707         0.000000   
     47. D(C   2,C   1,C   0,H   4)    176.2512         0.000000   
     48. D(C   2,C   1,C   0,H   5)     56.1765         0.000000   
     49. D(H   8,C   1,C   0,H   5)   -178.3939         0.000000   
     50. D(H   7,C   1,C   0,H   6)    179.3858         0.000000   
     51. D(I   3,C   1,C   0,H   5)    -15.6040         0.000000   
     52. D(H   7,C   1,C   0,H   5)    -60.8725         0.000000   
     53. D(H   8,C   1,C   0,H   4)    -58.3192         0.000000   
     54. D(H   8,C   1,C   0,H   6)     61.8643         0.000000   
     55. D(H   9,C   2,C   1,H   8)   -170.4195         0.000000   
     56. D(H   9,C   2,C   1,H   7)     76.5409         0.000000   
     57. D(H   9,C   2,C   1,C   0)    -44.0898         0.000000   
     58. D(I   3,C   2,C   1,C   0)   -117.7750         0.000000   
     59. D(Cl 11,C   2,C   1,I   3)   -176.5238         0.000000   
     60. D(Cl 11,C   2,C   1,H   7)   -173.6681         0.000000   
     61. D(Cl 11,C   2,C   1,C   0)     65.7012         0.000000   
     62. D(H  10,C   2,C   1,I   3)    -66.8452         0.000000   
     63. D(H  10,C   2,C   1,H   8)     49.0501         0.000000   
     64. D(Cl 11,C   2,C   1,H   8)    -60.6285         0.000000   
     65. D(H  10,C   2,C   1,H   7)    -63.9895         0.000000   
     66. D(H  10,C   2,C   1,C   0)    175.3798         0.000000   
     67. D(I   3,C   2,C   1,H   7)      2.8557         0.000000   
     68. D(I   3,C   2,C   1,H   8)    115.8953         0.000000   
     69. D(H   9,C   2,C   1,I   3)     73.6852         0.000000   
     70. D(C   1,I   3,C   2,H   9)   -116.6126         0.000000   
     71. D(C   2,I   3,C   1,H   8)    -96.7811         0.000000   
     72. D(C   2,I   3,C   1,H   7)   -175.8774         0.000000   
     73. D(C   2,I   3,C   1,C   0)    102.0579         0.000000   
     74. D(C   1,I   3,C   2,Cl 11)    171.6988         0.000000   
     75. D(C   1,I   3,C   2,H  10)    117.2291         0.000000   
    -----------------------------------------------------------------

Number of atoms                         .... 12
Number of degrees of freedom            .... 75

         *************************************************************
         *                GEOMETRY OPTIMIZATION CYCLE   1            *
         *************************************************************
---------------------------------
CARTESIAN COORDINATES (ANGSTROEM)
---------------------------------
  C      5.132564   -0.194022   -0.496356
  C      6.362354   -0.288936    0.385254
  C      7.077435    0.995646    0.604640
  I     10.111140    0.023542   -0.900129
  H      4.692242   -1.186635   -0.670500
  H      5.388944    0.242970   -1.474977
  H      4.368945    0.443266   -0.026777
  H      7.123912   -0.940221   -0.086254
  H      6.124885   -0.750801    1.356969
  H      7.232089    1.638686   -0.266731
  H      7.923823    0.990387    1.295023
  Cl     5.746188    2.274254    1.730178

----------------------------
CARTESIAN COORDINATES (A.U.)
----------------------------
  NO LB      ZA    FRAG     MASS         X           Y           Z
   0 C     6.0000    0    12.011    9.699140   -0.366648   -0.937978
   1 C     6.0000    0    12.011   12.023106   -0.546010    0.728024
   2 C     6.0000    0    12.011   13.374415    1.881498    1.142605
   3 I    25.0000*   0   126.900   19.107285    0.044488   -1.700998
   4 H     1.0000    0     1.008    8.867051   -2.242415   -1.267061
   5 H     1.0000    0     1.008   10.183628    0.459147   -2.787302
   6 H     1.0000    0     1.008    8.256110    0.837651   -0.050602
   7 H     1.0000    0     1.008   13.462244   -1.776760   -0.162996
   8 H     1.0000    0     1.008   11.574356   -1.418809    2.564300
   9 H     1.0000    0     1.008   13.666668    3.096668   -0.504048
  10 H     1.0000    0     1.008   14.973856    1.871560    2.447238
  11 Cl   17.0000    0    35.453   10.858722    4.297717    3.269562
* core charge reduced due to ECP

--------------------------------
INTERNAL COORDINATES (ANGSTROEM)
--------------------------------
 C      0   0   0     0.000000000000     0.00000000     0.00000000
 C      1   0   0     1.516122664832     0.00000000     0.00000000
 C      2   1   0     1.486479873120   114.95624557     0.00000000
 I      3   2   1     3.523163232496    96.47373103   242.22501320
 H      1   2   3     1.099768538893   111.12081107   176.25122292
 H      1   2   3     1.101993962379   110.64040920    56.17651127
 H      1   2   3     1.099887920691   110.55865941   296.43475049
 H      2   1   3     1.107457897948   110.30610864   242.95103836
 H      2   1   3     1.101790546943   111.36196003   125.42956286
 H      3   2   1     1.093940823416   117.28575621   315.91020293
 H      3   2   1     1.092258089385   117.50945444   175.37980257
 Cl     3   2   1     2.161918541523   106.96038205    65.70121980

---------------------------
INTERNAL COORDINATES (A.U.)
---------------------------
 C      0   0   0     0.000000000000     0.00000000     0.00000000
 C      1   0   0     2.865056621963     0.00000000     0.00000000
 C      2   1   0     2.809039863783   114.95624557     0.00000000
 I      3   2   1     6.657813634518    96.47373103   242.22501320
 H      1   2   3     2.078261349211   111.12081107   176.25122292
 H      1   2   3     2.082466790132   110.64040920    56.17651127
 H      1   2   3     2.078486948115   110.55865941   296.43475049
 H      2   1   3     2.092792131970   110.30610864   242.95103836
 H      2   1   3     2.082082390666   111.36196003   125.42956286
 H      3   2   1     2.067248562973   117.28575621   315.91020293
 H      3   2   1     2.064068656499   117.50945444   175.37980257
 Cl     3   2   1     4.085433967325   106.96038205    65.70121980

---------------------
BASIS SET INFORMATION
---------------------
There are 4 groups of distinct atoms

 Group   1 Type C   : 7s4p1d contracted to 3s2p1d pattern {511/31/1}
 Group   2 Type I   : 10s7p6d contracted to 4s4p2d pattern {6211/4111/51}
 Group   3 Type H   : 4s1p contracted to 2s1p pattern {31/1}
 Group   4 Type Cl  : 10s7p1d contracted to 4s3p1d pattern {5311/511/1}

Atom   0C    basis set group =>   1
Atom   1C    basis set group =>   1
Atom   2C    basis set group =>   1
Atom   3I    basis set group =>   2
Atom   4H    basis set group =>   3
Atom   5H    basis set group =>   3
Atom   6H    basis set group =>   3
Atom   7H    basis set group =>   3
Atom   8H    basis set group =>   3
Atom   9H    basis set group =>   3
Atom  10H    basis set group =>   3
Atom  11Cl   basis set group =>   4
---------------------------------
AUXILIARY/J BASIS SET INFORMATION
---------------------------------
There are 4 groups of distinct atoms

 Group   1 Type C   : 12s5p4d2f1g contracted to 6s4p3d1f1g pattern {711111/2111/211/2/1}
 Group   2 Type I   : 11s5p5d3f1g contracted to 8s4p3d2f1g pattern {41111111/2111/311/21/1}
 Group   3 Type H   : 5s2p1d contracted to 3s1p1d pattern {311/2/1}
 Group   4 Type Cl  : 14s5p5d2f1g contracted to 8s4p3d1f1g pattern {71111111/2111/311/2/1}

Atom   0C    basis set group =>   1
Atom   1C    basis set group =>   1
Atom   2C    basis set group =>   1
Atom   3I    basis set group =>   2
Atom   4H    basis set group =>   3
Atom   5H    basis set group =>   3
Atom   6H    basis set group =>   3
Atom   7H    basis set group =>   3
Atom   8H    basis set group =>   3
Atom   9H    basis set group =>   3
Atom  10H    basis set group =>   3
Atom  11Cl   basis set group =>   4
-------------------------
ECP PARAMETER INFORMATION
-------------------------

 Group 1, Type I  ECP Def2-ECP (replacing 28 core electrons, lmax=3)

Atom   3I    ECP group =>   1

[1631542044.769151] [comp0810:14670:0]            sys.c:618  UCX  ERROR shmget(size=2097152 flags=0xfb0) for mm_recv_desc failed: Operation not permitted, please check shared memory limits by 'ipcs -l'
[1631542044.774209] [comp0810:14671:0]            sys.c:618  UCX  ERROR shmget(size=2097152 flags=0xfb0) for mm_recv_desc failed: Operation not permitted, please check shared memory limits by 'ipcs -l'
[1631542044.773945] [comp0810:14672:0]            sys.c:618  UCX  ERROR shmget(size=2097152 flags=0xfb0) for mm_recv_desc failed: Operation not permitted, please check shared memory limits by 'ipcs -l'
[1631542044.779986] [comp0810:14673:0]            sys.c:618  UCX  ERROR shmget(size=2097152 flags=0xfb0) for mm_recv_desc failed: Operation not permitted, please check shared memory limits by 'ipcs -l'
[1631542044.786339] [comp0810:14672:0]            sys.c:618  UCX  ERROR shmget(size=2097152 flags=0xb80) for ucp_am_bufs failed: Operation not permitted, please check shared memory limits by 'ipcs -l'
[1631542044.786342] [comp0810:14673:0]            sys.c:618  UCX  ERROR shmget(size=2097152 flags=0xb80) for ucp_am_bufs failed: Operation not permitted, please check shared memory limits by 'ipcs -l'
[1631542044.788290] [comp0810:14670:0]            sys.c:618  UCX  ERROR shmget(size=2097152 flags=0xb80) for ucp_am_bufs failed: Operation not permitted, please check shared memory limits by 'ipcs -l'
[1631542044.788991] [comp0810:14671:0]            sys.c:618  UCX  ERROR shmget(size=2097152 flags=0xb80) for ucp_am_bufs failed: Operation not permitted, please check shared memory limits by 'ipcs -l'


           ************************************************************
           *        Program running with 4 parallel MPI-processes     *
           *              working on a common directory               *
           ************************************************************
------------------------------------------------------------------------------
                           ORCA GTO INTEGRAL CALCULATION
                           -- RI-GTO INTEGRALS CHOSEN --
------------------------------------------------------------------------------

                         BASIS SET STATISTICS AND STARTUP INFO

Gaussian basis set:
 # of primitive gaussian shells          ...  112
 # of primitive gaussian functions       ...  218
 # of contracted shells                  ...   57
 # of contracted basis functions         ...  121
 Highest angular momentum                ...    2
 Maximum contraction depth               ...    6
Auxiliary gaussian basis set:
 # of primitive gaussian shells          ...  180
 # of primitive gaussian functions       ...  480
 # of contracted shells                  ...  115
 # of contracted aux-basis functions     ...  333
 Highest angular momentum                ...    4
 Maximum contraction depth               ...    7
Ratio of auxiliary to basis functions    ...  2.75
Integral package used                  ... LIBINT
 One Electron integrals                  
   ECP integrals                         ... done
 Ordering auxiliary basis shells         ... done
 Integral threshhold             Thresh  ...  2.500e-11
 Primitive cut-off               TCut    ...  2.500e-12
 Pre-screening matrix                    ... done
 Shell pair data                         ... 
 Ordering of the shell pairs             ... done (   0.000 sec) 1537 of 1653 pairs
 Determination of significant pairs      ... done (   0.000 sec)
 Creation of shell pair data             ... done (   0.000 sec)
 Storage of shell pair data              ... done (   0.000 sec)
 Shell pair data done in (   0.001 sec)
 Computing two index integrals           ... done
 Cholesky decomposition of the V-matrix  ... done


Timings:
 Total evaluation time                   ...   0.356 sec (  0.006 min)
 One electron matrix time                ...   0.051 sec (  0.001 min) = 14.4%
 Schwartz matrix evaluation time         ...   0.101 sec (  0.002 min) = 28.5%
 Two index repulsion integral time       ...   0.002 sec (  0.000 min) =  0.6%
 Cholesky decomposition of V             ...   0.185 sec (  0.003 min) = 52.0%
 Three index repulsion integral time     ...   0.000 sec (  0.000 min) =  0.0%

[1631542045.910765] [comp0810:14698:0]            sys.c:618  UCX  ERROR shmget(size=2097152 flags=0xfb0) for mm_recv_desc failed: Operation not permitted, please check shared memory limits by 'ipcs -l'
[1631542045.911465] [comp0810:14699:0]            sys.c:618  UCX  ERROR shmget(size=2097152 flags=0xfb0) for mm_recv_desc failed: Operation not permitted, please check shared memory limits by 'ipcs -l'
[1631542045.911048] [comp0810:14701:0]            sys.c:618  UCX  ERROR shmget(size=2097152 flags=0xfb0) for mm_recv_desc failed: Operation not permitted, please check shared memory limits by 'ipcs -l'
[1631542045.915319] [comp0810:14700:0]            sys.c:618  UCX  ERROR shmget(size=2097152 flags=0xfb0) for mm_recv_desc failed: Operation not permitted, please check shared memory limits by 'ipcs -l'
[1631542045.922966] [comp0810:14701:0]            sys.c:618  UCX  ERROR shmget(size=2097152 flags=0xb80) for ucp_am_bufs failed: Operation not permitted, please check shared memory limits by 'ipcs -l'
[1631542045.923270] [comp0810:14699:0]            sys.c:618  UCX  ERROR shmget(size=2097152 flags=0xb80) for ucp_am_bufs failed: Operation not permitted, please check shared memory limits by 'ipcs -l'
[1631542045.922966] [comp0810:14700:0]            sys.c:618  UCX  ERROR shmget(size=2097152 flags=0xb80) for ucp_am_bufs failed: Operation not permitted, please check shared memory limits by 'ipcs -l'
[1631542045.923279] [comp0810:14698:0]            sys.c:618  UCX  ERROR shmget(size=2097152 flags=0xb80) for ucp_am_bufs failed: Operation not permitted, please check shared memory limits by 'ipcs -l'


           ************************************************************
           *        Program running with 4 parallel MPI-processes     *
           *              working on a common directory               *
           ************************************************************
-------------------------------------------------------------------------------
                                 ORCA SCF
-------------------------------------------------------------------------------

------------
SCF SETTINGS
------------
Hamiltonian:
 Density Functional     Method          .... DFT(GTOs)
 Exchange Functional    Exchange        .... PBE
   PBE kappa parameter   XKappa         ....  0.804000
   PBE mue parameter    XMuePBE         ....  0.219520
 Correlation Functional Correlation     .... PBE
   PBE beta parameter  CBetaPBE         ....  0.066725
 LDA part of GGA corr.  LDAOpt          .... PW91-LDA
 Gradients option       PostSCFGGA      .... off
 Hybrid DFT is turned on
   Fraction HF Exchange ScalHFX         ....  0.250000
   Scaling of DF-GGA-X  ScalDFX         ....  0.750000
   Scaling of DF-GGA-C  ScalDFC         ....  1.000000
   Scaling of DF-LDA-C  ScalLDAC        ....  1.000000
   Perturbative correction              ....  0.000000
   Density functional embedding theory  .... OFF
   NL short-range parameter             ....  6.900000
 RI-approximation to the Coulomb term is turned on
   Number of auxiliary basis functions  .... 333
   RIJ-COSX (HFX calculated with COS-X)).... on


General Settings:
 Integral files         IntName         .... manual_356
 Hartree-Fock type      HFTyp           .... RHF
 Total Charge           Charge          ....   -1
 Multiplicity           Mult            ....    1
 Number of Electrons    NEL             ....   68
 Basis Dimension        Dim             ....  121
 Nuclear Repulsion      ENuc            ....    275.9813885210 Eh

Convergence Acceleration:
 DIIS                   CNVDIIS         .... on
   Start iteration      DIISMaxIt       ....    12
   Startup error        DIISStart       ....  0.200000
   # of expansion vecs  DIISMaxEq       ....     5
   Bias factor          DIISBfac        ....   1.050
   Max. coefficient     DIISMaxC        ....  10.000
 Newton-Raphson         CNVNR           .... off
 SOSCF                  CNVSOSCF        .... on
   Start iteration      SOSCFMaxIt      ....   150
   Startup grad/error   SOSCFStart      ....  0.003300
 Level Shifting         CNVShift        .... on
   Level shift para.    LevelShift      ....    0.2500
   Turn off err/grad.   ShiftErr        ....    0.0010
 Zerner damping         CNVZerner       .... off
 Static damping         CNVDamp         .... on
   Fraction old density DampFac         ....    0.7000
   Max. Damping (<1)    DampMax         ....    0.9800
   Min. Damping (>=0)   DampMin         ....    0.0000
   Turn off err/grad.   DampErr         ....    0.1000
 Fernandez-Rico         CNVRico         .... off

SCF Procedure:
 Maximum # iterations   MaxIter         ....   250
 SCF integral mode      SCFMode         .... Direct
   Integral package                     .... LIBINT
 Reset frequency        DirectResetFreq ....    20
 Integral Threshold     Thresh          ....  2.500e-11 Eh
 Primitive CutOff       TCut            ....  2.500e-12 Eh

Convergence Tolerance:
 Convergence Check Mode ConvCheckMode   .... Total+1el-Energy
 Convergence forced     ConvForced      .... 0
 Energy Change          TolE            ....  1.000e-08 Eh
 1-El. energy change                    ....  1.000e-05 Eh
 Orbital Gradient       TolG            ....  1.000e-05
 Orbital Rotation angle TolX            ....  1.000e-05
 DIIS Error             TolErr          ....  5.000e-07


Diagonalization of the overlap matrix:
Smallest eigenvalue                        ... 2.710e-03
Time for diagonalization                   ...    0.002 sec
Threshold for overlap eigenvalues          ... 1.000e-08
Number of eigenvalues below threshold      ... 0
Time for construction of square roots      ...    0.001 sec
Total time needed                          ...    0.003 sec

-------------------
DFT GRID GENERATION
-------------------

General Integration Accuracy     IntAcc      ...  4.340
Radial Grid Type                 RadialGrid  ... Gauss-Chebyshev
Angular Grid (max. acc.)         AngularGrid ... Lebedev-110
Angular grid pruning method      GridPruning ... 3 (G Style)
Weight generation scheme         WeightScheme... Becke
Basis function cutoff            BFCut       ...    1.0000e-11
Integration weight cutoff        WCut        ...    1.0000e-14
Grids for H and He will be reduced by one unit

# of grid points (after initial pruning)     ...  15652 (   0.0 sec)
# of grid points (after weights+screening)   ...  14862 (   0.0 sec)
nearest neighbour list constructed           ...    0.0 sec
Grid point re-assignment to atoms done       ...    0.0 sec
Grid point division into batches done        ...    0.0 sec
Reduced shell lists constructed in    0.0 sec

Total number of grid points                  ...    14862
Total number of batches                      ...      238
Average number of points per batch           ...       62
Average number of grid points per atom       ...     1238
Average number of shells per batch           ...    41.46 (72.74%)
Average number of basis functions per batch  ...    86.77 (71.71%)
Average number of large shells per batch     ...    34.62 (83.51%)
Average number of large basis fcns per batch ...    70.82 (81.62%)
Maximum spatial batch extension              ...  21.14, 21.29, 17.66 au
Average spatial batch extension              ...   0.90,  0.93,  0.86 au

Time for grid setup =    0.041 sec

------------------------------
INITIAL GUESS: MODEL POTENTIAL
------------------------------
Loading Hartree-Fock densities                     ... done
  calling /usr/local/orca_4_2_1_linux_x86-64/orca manual_356_atom53.inp > manual_356_atom53.out in order to generate an atomic fitting density for atom 3 (I  with ECP) on-the-fly... 
    atom 3 (I ), assumed electronic state with S=2: 1s2 2s2 2p6 3s2 3p6 4s2 3d10 4p6 5s2 4d10 5p5           ... done
Calculating cut-offs                               ... done
Setting up the integral package                    ... done
Initializing the effective Hamiltonian             ... done
Starting the Coulomb interaction                   ... done (   0.0 sec)
Reading the grid                                   ... done
Mapping shells                                     ... done
Starting the XC term evaluation                    ... done (   0.0 sec)
  promolecular density results
     # of electrons  =     95.000608727
     EX              =   -217.823781029
     EC              =     -4.309246804
     EX+EC           =   -222.133027833
Transforming the Hamiltonian                       ... done (   0.0 sec)
Diagonalizing the Hamiltonian                      ... done (   0.0 sec)
Back transforming the eigenvectors                 ... done (   0.0 sec)
Now organizing SCF variables                       ... done
                      ------------------
                      INITIAL GUESS DONE (   1.0 sec)
                      ------------------
--------------------
COSX GRID GENERATION
--------------------

General Integration Accuracy     IntAcc      ...  3.340
Radial Grid Type                 RadialGrid  ... Gauss-Chebyshev
Angular Grid (max. acc.)         AngularGrid ... Lebedev-50
Angular grid pruning method      GridPruning ... 3 (G Style)
Weight generation scheme         WeightScheme... Becke
Basis function cutoff            BFCut       ...    1.0000e-11
Integration weight cutoff        WCut        ...    1.0000e-14
Grids for H and He will be reduced by one unit

# of grid points (after initial pruning)     ...   5916 (   0.0 sec)
# of grid points (after weights+screening)   ...   5628 (   0.0 sec)
nearest neighbour list constructed           ...    0.0 sec
Grid point re-assignment to atoms done       ...    0.0 sec
Grid point division into batches done        ...    0.0 sec
Reduced shell lists constructed in    0.0 sec

Total number of grid points                  ...     5628
Total number of batches                      ...       96
Average number of points per batch           ...       58
Average number of grid points per atom       ...      469
Average number of shells per batch           ...    42.96 (75.37%)
Average number of basis functions per batch  ...    90.00 (74.38%)
Average number of large shells per batch     ...    36.64 (85.29%)
Average number of large basis fcns per batch ...    75.04 (83.38%)
Maximum spatial batch extension              ...  14.24, 16.39, 16.39 au
Average spatial batch extension              ...   1.06,  1.00,  1.09 au

Overlap Fitting                  UseSFitting ... on
Constructing numerical overlap ... done (      0.0 sec)
Inverting numerical overlap    ... done (      0.0 sec)
Obtaining analytic overlap     ... done (      0.0 sec)
Final contraction and storage  ... done (      0.0 sec)


General Integration Accuracy     IntAcc      ...  3.670
Radial Grid Type                 RadialGrid  ... Gauss-Chebyshev
Angular Grid (max. acc.)         AngularGrid ... Lebedev-50
Angular grid pruning method      GridPruning ... 3 (G Style)
Weight generation scheme         WeightScheme... Becke
Basis function cutoff            BFCut       ...    1.0000e-11
Integration weight cutoff        WCut        ...    1.0000e-14
Grids for H and He will be reduced by one unit

# of grid points (after initial pruning)     ...   7410 (   0.0 sec)
# of grid points (after weights+screening)   ...   7022 (   0.0 sec)
nearest neighbour list constructed           ...    0.0 sec
Grid point re-assignment to atoms done       ...    0.0 sec
Grid point division into batches done        ...    0.0 sec
Reduced shell lists constructed in    0.0 sec

Total number of grid points                  ...     7022
Total number of batches                      ...      116
Average number of points per batch           ...       60
Average number of grid points per atom       ...      585
Average number of shells per batch           ...    42.43 (74.44%)
Average number of basis functions per batch  ...    88.77 (73.36%)
Average number of large shells per batch     ...    35.60 (83.90%)
Average number of large basis fcns per batch ...    72.67 (81.86%)
Maximum spatial batch extension              ...  22.37, 17.15, 17.23 au
Average spatial batch extension              ...   1.32,  1.17,  1.12 au

Overlap Fitting                  UseSFitting ... on
Constructing numerical overlap ... done (      0.0 sec)
Inverting numerical overlap    ... done (      0.0 sec)
Obtaining analytic overlap     ... done (      0.0 sec)
Final contraction and storage  ... done (      0.0 sec)


General Integration Accuracy     IntAcc      ...  4.010
Radial Grid Type                 RadialGrid  ... Gauss-Chebyshev
Angular Grid (max. acc.)         AngularGrid ... Lebedev-110
Angular grid pruning method      GridPruning ... 3 (G Style)
Weight generation scheme         WeightScheme... Becke
Basis function cutoff            BFCut       ...    1.0000e-11
Integration weight cutoff        WCut        ...    1.0000e-14
Grids for H and He will be reduced by one unit

# of grid points (after initial pruning)     ...  13686 (   0.0 sec)
# of grid points (after weights+screening)   ...  13023 (   0.0 sec)
nearest neighbour list constructed           ...    0.0 sec
Grid point re-assignment to atoms done       ...    0.0 sec
Grid point division into batches done        ...    0.0 sec
Reduced shell lists constructed in    0.0 sec

Total number of grid points                  ...    13023
Total number of batches                      ...      210
Average number of points per batch           ...       62
Average number of grid points per atom       ...     1085
Average number of shells per batch           ...    41.59 (72.97%)
Average number of basis functions per batch  ...    86.96 (71.87%)
Average number of large shells per batch     ...    34.31 (82.50%)
Average number of large basis fcns per batch ...    69.98 (80.47%)
Maximum spatial batch extension              ...  21.23, 20.92, 16.91 au
Average spatial batch extension              ...   0.99,  0.99,  0.93 au

Overlap Fitting                  UseSFitting ... on
Constructing numerical overlap ... done (      0.0 sec)
Inverting numerical overlap    ... done (      0.0 sec)
Obtaining analytic overlap     ... done (      0.0 sec)
Final contraction and storage  ... done (      0.0 sec)

Time for X-Grid setup             =    0.140 sec

--------------------
CPCM SOLVATION MODEL
--------------------
CPCM parameters:
  Epsilon                                         ...      20.7000
  Refrac                                          ...       1.3590
  Rsolv                                           ...       1.3000
  Surface type                                    ...    GEPOL SES
  Epsilon function type                           ...         CPCM
Radii:
 Radius for C  used is    3.7795 Bohr (=   2.0000 Ang.)
 Radius for I  used is    4.3842 Bohr (=   2.3200 Ang.)
 Radius for H  used is    2.4566 Bohr (=   1.3000 Ang.)
 Radius for Cl used is    3.8739 Bohr (=   2.0500 Ang.)
Calculating surface                               ...        done! (  0.0s)
GEPOL surface points                              ...          508
GEPOL Volume                                      ...    1059.2287
GEPOL Surface-area                                ...     611.1660
Calculating surface distance matrix               ...        done! (  0.0s)
Performing Cholesky decomposition & store         ...        done! (  0.1s)
Overall time for CPCM initialization              ...                 0.1s
--------------
SCF ITERATIONS
--------------
ITER       Energy         Delta-E        Max-DP      RMS-DP      [F,P]     Damp
               ***  Starting incremental Fock matrix formation  ***
  0   -849.0282486623   0.000000000000 1.93176892  0.04854983  1.0325125 0.7000
  1   -858.4604335803  -9.432184918027 3.53274898  0.06279477  0.6691209 0.7000
  2   -863.3918731573  -4.931439576963 0.94229675  0.02267199  0.4403303 0.7000
  3   -867.2200102089  -3.828137051576 0.91138183  0.01915625  0.2837112 0.7000
  4   -869.8573813305  -2.637371121591 0.70819913  0.01452693  0.2135070 0.7000
                               ***Turning on DIIS***
  5   -871.7042332852  -1.846851954705 0.51500137  0.01070523  0.1659727 0.7000
  6   -873.0062621574  -1.302028872187 0.36824561  0.00797807  0.1300010 0.7000
  7   -873.9238566883  -0.917594530898 0.86479526  0.01899002  0.0891505 0.0000
  8   -876.0864081794  -2.162551491134 0.02254762  0.00063830  0.0070400 0.0000
                      *** Initiating the SOSCF procedure ***
                           *** Shutting down DIIS ***
                      *** Re-Reading the Fockian *** 
                      *** Removing any level shift *** 
ITER      Energy       Delta-E        Grad      Rot      Max-DP    RMS-DP
  9   -876.08686946  -0.0004612778  0.001965  0.001965  0.010703  0.000293
               *** Restarting incremental Fock matrix formation ***
 10   -876.08699375  -0.0001242894  0.001021  0.005047  0.006066  0.000237
 11   -876.08703076  -0.0000370118  0.000197  0.001196  0.002168  0.000062
 12   -876.08703131  -0.0000005543  0.000157  0.000302  0.000626  0.000018
 13   -876.08703227  -0.0000009528  0.000035  0.000086  0.000389  0.000008
 14   -876.08703225   0.0000000147  0.000036  0.000032  0.000192  0.000004
 15   -876.08703229  -0.0000000375  0.000004  0.000010  0.000047  0.000001
 16   -876.08703229  -0.0000000062  0.000005  0.000005  0.000029  0.000001
                 **** Energy Check signals convergence ****
              ***Rediagonalizing the Fockian in SOSCF/NRSCF***

               *****************************************************
               *                     SUCCESS                       *
               *           SCF CONVERGED AFTER  17 CYCLES          *
               *****************************************************

Setting up the final grid:

General Integration Accuracy     IntAcc      ...  4.670
Radial Grid Type                 RadialGrid  ... Gauss-Chebyshev
Angular Grid (max. acc.)         AngularGrid ... Lebedev-302
Angular grid pruning method      GridPruning ... 3 (G Style)
Weight generation scheme         WeightScheme... Becke
Basis function cutoff            BFCut       ...    1.0000e-11
Integration weight cutoff        WCut        ...    1.0000e-14
Grids for H and He will be reduced by one unit

# of grid points (after initial pruning)     ...  59874 (   0.0 sec)
# of grid points (after weights+screening)   ...  56280 (   0.0 sec)
nearest neighbour list constructed           ...    0.0 sec
Grid point re-assignment to atoms done       ...    0.0 sec
Grid point division into batches done        ...    0.2 sec
Reduced shell lists constructed in    0.3 sec

Total number of grid points                  ...    56280
Total number of batches                      ...      886
Average number of points per batch           ...       63
Average number of grid points per atom       ...     4690
Average number of shells per batch           ...    39.17 (68.73%)
Average number of basis functions per batch  ...    81.77 (67.58%)
Average number of large shells per batch     ...    32.05 (81.82%)
Average number of large basis fcns per batch ...    65.29 (79.85%)
Maximum spatial batch extension              ...  20.76, 18.78, 16.43 au
Average spatial batch extension              ...   0.62,  0.64,  0.61 au

Final grid set up in    0.3 sec
Final integration                            ... done (   0.1 sec)
Change in XC energy                          ...     0.000561839
Integrated number of electrons               ...    67.999993380
Previous integrated no of electrons          ...    68.003115533
Old exchange energy                            =    -16.725000721 Eh
New exchange energy                            =    -16.724547154 Eh
Exchange energy change after final integration =      0.000453567 Eh
Total energy after final integration           =   -876.086016883 Eh
Final COS-X integration done in                =     0.516 sec

----------------
TOTAL SCF ENERGY
----------------

Total Energy       :         -876.08601688 Eh          -23839.51250 eV

Components:
Nuclear Repulsion  :          275.98138852 Eh            7509.83537 eV
Electronic Energy  :        -1152.06740540 Eh          -31349.34787 eV
One Electron Energy:        -1873.41864887 Eh          -50978.31312 eV
Two Electron Energy:          721.35124347 Eh           19628.96525 eV
CPCM Dielectric    :           -0.08921413 Eh              -2.42764 eV

Virial components:
Potential Energy   :        -1565.53341639 Eh          -42600.33002 eV
Kinetic Energy     :          689.44739951 Eh           18760.81752 eV
Virial Ratio       :            2.27070755


DFT components:
N(Alpha)           :       33.999996689959 electrons
N(Beta)            :       33.999996689959 electrons
N(Total)           :       67.999993379918 electrons
E(X)               :      -49.883298200069 Eh       
E(C)               :       -2.636867453059 Eh       
E(XC)              :      -52.520165653128 Eh       
DFET-embed. en.    :        0.000000000000 Eh       
CPCM Solvation Model Properties:
Surface-charge          :            0.96771400
Charge-correction       :           -0.00424247 Eh              -0.11544 eV
Free-energy (cav+disp)  :            0.00394991 Eh               0.10748 eV
Corrected G(solv)       :         -876.08630944 Eh          -23839.52046 eV

---------------
SCF CONVERGENCE
---------------

  Last Energy change         ...    5.8208e-09  Tolerance :   1.0000e-08
  Last MAX-Density change    ...    2.6645e-15  Tolerance :   1.0000e-07
  Last RMS-Density change    ...    6.7381e-17  Tolerance :   5.0000e-09
  Last Orbital Gradient      ...    1.5215e-07  Tolerance :   1.0000e-05
  Last Orbital Rotation      ...    4.9053e-07  Tolerance :   1.0000e-05

             **** THE GBW FILE WAS UPDATED (manual_356.gbw) ****
             **** DENSITY FILE WAS UPDATED (manual_356.scfp) ****
             **** ENERGY FILE WAS UPDATED (manual_356.en.tmp) ****
             **** THE GBW FILE WAS UPDATED (manual_356.gbw) ****
             **** DENSITY FILE WAS UPDATED (manual_356.scfp) ****
----------------
ORBITAL ENERGIES
----------------

  NO   OCC          E(Eh)            E(eV) 
   0   2.0000    -101.633400     -2765.5854 
   1   2.0000     -10.300048      -280.2785 
   2   2.0000     -10.234761      -278.5020 
   3   2.0000     -10.218067      -278.0477 
   4   2.0000      -9.480724      -257.9836 
   5   2.0000      -7.221294      -196.5014 
   6   2.0000      -7.213527      -196.2900 
   7   2.0000      -7.213451      -196.2880 
   8   2.0000      -6.804788      -185.1677 
   9   2.0000      -4.812443      -130.9532 
  10   2.0000      -4.812219      -130.9471 
  11   2.0000      -4.812162      -130.9456 
  12   2.0000      -1.839603       -50.0581 
  13   2.0000      -1.839555       -50.0568 
  14   2.0000      -1.839520       -50.0559 
  15   2.0000      -1.839357       -50.0515 
  16   2.0000      -1.839347       -50.0512 
  17   2.0000      -0.822195       -22.3731 
  18   2.0000      -0.767254       -20.8780 
  19   2.0000      -0.687942       -18.7198 
  20   2.0000      -0.610182       -16.6039 
  21   2.0000      -0.590812       -16.0768 
  22   2.0000      -0.476600       -12.9690 
  23   2.0000      -0.461226       -12.5506 
  24   2.0000      -0.428275       -11.6539 
  25   2.0000      -0.377431       -10.2704 
  26   2.0000      -0.365846        -9.9552 
  27   2.0000      -0.354322        -9.6416 
  28   2.0000      -0.323549        -8.8042 
  29   2.0000      -0.288594        -7.8530 
  30   2.0000      -0.286885        -7.8066 
  31   2.0000      -0.217695        -5.9238 
  32   2.0000      -0.217376        -5.9151 
  33   2.0000      -0.215057        -5.8520 
  34   0.0000      -0.028135        -0.7656 
  35   0.0000       0.087334         2.3765 
  36   0.0000       0.121244         3.2992 
  37   0.0000       0.127570         3.4714 
  38   0.0000       0.141541         3.8515 
  39   0.0000       0.157108         4.2751 
  40   0.0000       0.172615         4.6971 
  41   0.0000       0.181106         4.9282 
  42   0.0000       0.225108         6.1255 
  43   0.0000       0.270529         7.3615 
  44   0.0000       0.326717         8.8904 
  45   0.0000       0.410582        11.1725 
  46   0.0000       0.424602        11.5540 
  47   0.0000       0.430081        11.7031 
  48   0.0000       0.442847        12.0505 
  49   0.0000       0.460593        12.5334 
  50   0.0000       0.466893        12.7048 
  51   0.0000       0.476217        12.9585 
  52   0.0000       0.482081        13.1181 
  53   0.0000       0.501628        13.6500 
  54   0.0000       0.502534        13.6746 
  55   0.0000       0.507105        13.7990 
  56   0.0000       0.515979        14.0405 
  57   0.0000       0.535347        14.5675 
  58   0.0000       0.622731        16.9454 
  59   0.0000       0.645897        17.5758 
  60   0.0000       0.656388        17.8612 
  61   0.0000       0.662695        18.0329 
  62   0.0000       0.673674        18.3316 
  63   0.0000       0.686245        18.6737 
  64   0.0000       0.703070        19.1315 
  65   0.0000       0.703746        19.1499 
  66   0.0000       0.714868        19.4525 
  67   0.0000       0.728134        19.8135 
  68   0.0000       0.731070        19.8934 
  69   0.0000       0.764335        20.7986 
  70   0.0000       0.789789        21.4912 
  71   0.0000       0.831713        22.6321 
  72   0.0000       0.840113        22.8606 
  73   0.0000       0.852186        23.1892 
  74   0.0000       0.873471        23.7684 
  75   0.0000       0.885900        24.1066 
  76   0.0000       0.954133        25.9633 
  77   0.0000       1.011129        27.5142 
  78   0.0000       1.026571        27.9344 
  79   0.0000       1.100089        29.9349 
  80   0.0000       1.155678        31.4476 
  81   0.0000       1.218377        33.1537 
  82   0.0000       1.272212        34.6187 
  83   0.0000       1.299140        35.3514 
  84   0.0000       1.378241        37.5038 
  85   0.0000       1.524618        41.4870 
  86   0.0000       1.556118        42.3441 
  87   0.0000       1.610218        43.8163 
  88   0.0000       1.707778        46.4710 
  89   0.0000       1.739037        47.3216 
  90   0.0000       1.775009        48.3004 
  91   0.0000       1.797436        48.9107 
  92   0.0000       1.816926        49.4411 
  93   0.0000       1.825233        49.6671 
  94   0.0000       1.835525        49.9472 
  95   0.0000       1.878089        51.1054 
  96   0.0000       1.891093        51.4593 
  97   0.0000       1.961103        53.3643 
  98   0.0000       1.972893        53.6851 
  99   0.0000       2.011825        54.7445 
 100   0.0000       2.056390        55.9572 
 101   0.0000       2.142271        58.2942 
 102   0.0000       2.247470        61.1568 
 103   0.0000       2.295913        62.4750 
 104   0.0000       2.387011        64.9539 
 105   0.0000       2.417214        65.7757 
 106   0.0000       2.457692        66.8772 
 107   0.0000       2.540737        69.1370 
 108   0.0000       2.592203        70.5374 
 109   0.0000       2.627625        71.5013 
 110   0.0000       2.767638        75.3112 
 111   0.0000       2.873374        78.1885 
 112   0.0000       2.890574        78.6565 
 113   0.0000       2.973737        80.9195 
 114   0.0000       3.000552        81.6492 
 115   0.0000       3.066058        83.4317 
 116   0.0000       3.080695        83.8300 
 117   0.0000      18.672470       508.1037 
 118   0.0000      18.688399       508.5372 
 119   0.0000      18.809387       511.8295 
 120   0.0000      55.925401      1521.8075 

                    ********************************
                    * MULLIKEN POPULATION ANALYSIS *
                    ********************************

-----------------------
MULLIKEN ATOMIC CHARGES
-----------------------
   0 C :   -0.091780
   1 C :   -0.096917
   2 C :   -0.013277
   3 I :   -0.946385
   4 H :    0.054244
   5 H :    0.049540
   6 H :    0.043911
   7 H :    0.078787
   8 H :    0.065751
   9 H :    0.112550
  10 H :    0.116759
  11 Cl:   -0.373183
Sum of atomic charges:   -1.0000000

--------------------------------
MULLIKEN REDUCED ORBITAL CHARGES
--------------------------------
  0 C s       :     3.050972  s :     3.050972
      pz      :     1.002410  p :     3.013371
      px      :     0.982503
      py      :     1.028459
      dz2     :     0.006023  d :     0.027437
      dxz     :     0.006231
      dyz     :     0.004116
      dx2y2   :     0.004394
      dxy     :     0.006673
  1 C s       :     3.060420  s :     3.060420
      pz      :     1.033171  p :     2.999838
      px      :     1.005382
      py      :     0.961285
      dz2     :     0.007273  d :     0.036660
      dxz     :     0.007375
      dyz     :     0.006372
      dx2y2   :     0.005955
      dxy     :     0.009685
  2 C s       :     3.223062  s :     3.223062
      pz      :     0.961055  p :     2.759806
      px      :     0.886347
      py      :     0.912404
      dz2     :     0.003215  d :     0.030409
      dxz     :     0.006342
      dyz     :     0.008257
      dx2y2   :     0.006576
      dxy     :     0.006019
  3 I s       :     3.998503  s :     3.998503
      pz      :     3.988767  p :    11.946959
      px      :     3.968678
      py      :     3.989513
      dz2     :     2.000116  d :    10.000922
      dxz     :     2.000283
      dyz     :     2.000055
      dx2y2   :     2.000227
      dxy     :     2.000240
  4 H s       :     0.921932  s :     0.921932
      pz      :     0.004999  p :     0.023823
      px      :     0.005958
      py      :     0.012867
  5 H s       :     0.926642  s :     0.926642
      pz      :     0.012485  p :     0.023818
      px      :     0.004781
      py      :     0.006552
  6 H s       :     0.931827  s :     0.931827
      pz      :     0.006695  p :     0.024261
      px      :     0.008863
      py      :     0.008703
  7 H s       :     0.896536  s :     0.896536
      pz      :     0.006685  p :     0.024677
      px      :     0.009671
      py      :     0.008321
  8 H s       :     0.911488  s :     0.911488
      pz      :     0.012466  p :     0.022761
      px      :     0.004538
      py      :     0.005758
  9 H s       :     0.864060  s :     0.864060
      pz      :     0.011561  p :     0.023391
      px      :     0.004009
      py      :     0.007820
 10 H s       :     0.859698  s :     0.859698
      pz      :     0.008822  p :     0.023543
      px      :     0.011240
      py      :     0.003481
 11 Cls       :     5.972951  s :     5.972951
      pz      :     3.830477  p :    11.391057
      px      :     3.768076
      py      :     3.792504
      dz2     :     0.000866  d :     0.009174
      dxz     :     0.002383
      dyz     :     0.002067
      dx2y2   :     0.000933
      dxy     :     0.002925


                     *******************************
                     * LOEWDIN POPULATION ANALYSIS *
                     *******************************

----------------------
LOEWDIN ATOMIC CHARGES
----------------------
   0 C :   -0.074904
   1 C :   -0.073990
   2 C :    0.066029
   3 I :   -0.922054
   4 H :    0.034602
   5 H :    0.032767
   6 H :    0.022790
   7 H :    0.051396
   8 H :    0.041902
   9 H :    0.038903
  10 H :    0.038753
  11 Cl:   -0.256193

-------------------------------
LOEWDIN REDUCED ORBITAL CHARGES
-------------------------------
  0 C s       :     2.843671  s :     2.843671
      pz      :     1.053071  p :     3.160687
      px      :     1.035871
      py      :     1.071746
      dz2     :     0.014520  d :     0.070546
      dxz     :     0.017382
      dyz     :     0.010332
      dx2y2   :     0.011552
      dxy     :     0.016761
  1 C s       :     2.840357  s :     2.840357
      pz      :     1.064089  p :     3.142359
      px      :     1.042751
      py      :     1.035518
      dz2     :     0.017138  d :     0.091274
      dxz     :     0.019482
      dyz     :     0.015214
      dx2y2   :     0.015080
      dxy     :     0.024361
  2 C s       :     2.956131  s :     2.956131
      pz      :     1.004757  p :     2.908236
      px      :     0.929256
      py      :     0.974224
      dz2     :     0.007938  d :     0.069604
      dxz     :     0.014808
      dyz     :     0.018464
      dx2y2   :     0.014616
      dxy     :     0.013778
  3 I s       :     3.994800  s :     3.994800
      pz      :     3.985166  p :    11.926547
      px      :     3.953884
      py      :     3.987497
      dz2     :     2.000093  d :    10.000706
      dxz     :     2.000200
      dyz     :     2.000046
      dx2y2   :     2.000161
      dxy     :     2.000206
  4 H s       :     0.899253  s :     0.899253
      pz      :     0.013315  p :     0.066145
      px      :     0.017296
      py      :     0.035534
  5 H s       :     0.901296  s :     0.901296
      pz      :     0.034973  p :     0.065937
      px      :     0.013903
      py      :     0.017062
  6 H s       :     0.909349  s :     0.909349
      pz      :     0.018319  p :     0.067861
      px      :     0.026236
      py      :     0.023307
  7 H s       :     0.878792  s :     0.878792
      pz      :     0.018507  p :     0.069812
      px      :     0.027977
      py      :     0.023328
  8 H s       :     0.891455  s :     0.891455
      pz      :     0.035452  p :     0.066643
      px      :     0.013861
      py      :     0.017331
  9 H s       :     0.888479  s :     0.888479
      pz      :     0.036493  p :     0.072618
      px      :     0.012209
      py      :     0.023916
 10 H s       :     0.887782  s :     0.887782
      pz      :     0.025829  p :     0.073465
      px      :     0.035981
      py      :     0.011655
 11 Cls       :     5.902398  s :     5.902398
      pz      :     3.817257  p :    11.345122
      px      :     3.752869
      py      :     3.774996
      dz2     :     0.000713  d :     0.008674
      dxz     :     0.002286
      dyz     :     0.001921
      dx2y2   :     0.000868
      dxy     :     0.002885


                      *****************************
                      * MAYER POPULATION ANALYSIS *
                      *****************************

  NA   - Mulliken gross atomic population
  ZA   - Total nuclear charge
  QA   - Mulliken gross atomic charge
  VA   - Mayer's total valence
  BVA  - Mayer's bonded valence
  FA   - Mayer's free valence

  ATOM       NA         ZA         QA         VA         BVA        FA
  0 C      6.0918     6.0000    -0.0918     3.9831     3.9831    -0.0000
  1 C      6.0969     6.0000    -0.0969     4.0363     4.0363     0.0000
  2 C      6.0133     6.0000    -0.0133     3.8312     3.8312     0.0000
  3 I     25.9464    25.0000    -0.9464     0.1157     0.1157     0.0000
  4 H      0.9458     1.0000     0.0542     0.9817     0.9817     0.0000
  5 H      0.9505     1.0000     0.0495     0.9861     0.9861     0.0000
  6 H      0.9561     1.0000     0.0439     1.0133     1.0133    -0.0000
  7 H      0.9212     1.0000     0.0788     1.0000     1.0000     0.0000
  8 H      0.9342     1.0000     0.0658     0.9833     0.9833     0.0000
  9 H      0.8875     1.0000     0.1125     0.9872     0.9872     0.0000
 10 H      0.8832     1.0000     0.1168     0.9879     0.9879     0.0000
 11 Cl    17.3732    17.0000    -0.3732     0.9142     0.9142     0.0000

  Mayer bond orders larger than 0.100000
B(  0-C ,  1-C ) :   1.0854 B(  0-C ,  4-H ) :   0.9689 B(  0-C ,  5-H ) :   0.9699 
B(  0-C ,  6-H ) :   0.9670 B(  1-C ,  2-C ) :   1.0884 B(  1-C ,  7-H ) :   0.9058 
B(  1-C ,  8-H ) :   0.9403 B(  2-C ,  9-H ) :   0.9466 B(  2-C , 10-H ) :   0.9456 
B(  2-C , 11-Cl) :   0.8128 


------------------
HIRSHFELD ANALYSIS
------------------

Total integrated alpha density =     34.001557767
Total integrated beta density  =     34.001557767

  ATOM     CHARGE      SPIN    
   0 C   -0.074891    0.000000
   1 C   -0.036973    0.000000
   2 C    0.067711    0.000000
   3 I   -0.885018    0.000000
   4 H    0.032015    0.000000
   5 H    0.029755    0.000000
   6 H    0.018292    0.000000
   7 H    0.035059    0.000000
   8 H    0.036977    0.000000
   9 H    0.045945    0.000000
  10 H    0.045438    0.000000
  11 Cl  -0.317425    0.000000

  TOTAL  -1.003116    0.000000

-------
TIMINGS
-------

Total SCF time: 0 days 0 hours 0 min 12 sec 

Total time                  ....      12.046 sec
Sum of individual times     ....      11.842 sec  ( 98.3%)

Fock matrix formation       ....      10.360 sec  ( 86.0%)
  Split-RI-J                ....       1.701 sec  ( 16.4% of F)
  Chain of spheres X        ....       4.890 sec  ( 47.2% of F)
  COS-X 1 center corr.      ....       0.000 sec  (  0.0% of F)
  XC integration            ....       0.487 sec  (  4.7% of F)
    Basis function eval.    ....       0.195 sec  ( 40.1% of XC)
    Density eval.           ....       0.082 sec  ( 16.9% of XC)
    XC-Functional eval.     ....       0.049 sec  ( 10.1% of XC)
    XC-Potential eval.      ....       0.120 sec  ( 24.6% of XC)
Diagonalization             ....       0.014 sec  (  0.1%)
Density matrix formation    ....       0.003 sec  (  0.0%)
Population analysis         ....       0.025 sec  (  0.2%)
Initial guess               ....       0.960 sec  (  8.0%)
Orbital Transformation      ....       0.000 sec  (  0.0%)
Orbital Orthonormalization  ....       0.000 sec  (  0.0%)
DIIS solution               ....       0.004 sec  (  0.0%)
SOSCF solution              ....       0.006 sec  (  0.1%)
Grid generation             ....       0.470 sec  (  3.9%)


-------------------------------------------------------------------------------
                          DFT DISPERSION CORRECTION                            
                                                                               
                              DFTD3 V3.1  Rev 1                                
                          USING Becke-Johnson damping                          
-------------------------------------------------------------------------------
The PBE0 functional is recognized
Active option DFTDOPT                   ...         4   

molecular C6(AA) [au] = 2843.193943 


            DFT-D V3
 parameters
 s6 scaling factor         :     1.0000 
 a1 scaling factor         :     0.4145 
 s8 scaling factor         :     1.2177 
 a2 scaling factor         :     4.8593 
 ad hoc parameters k1-k3   :    16.0000     1.3333    -4.0000 

 Edisp/kcal,au: -5.645652057078  -0.008996918275 
 E6   /kcal   :  -3.422556416 
 E8   /kcal   :  -2.223095641 
 % E8         :  39.377128065 

-------------------------   ----------------
Dispersion correction           -0.008996918
-------------------------   ----------------


-------------------------   --------------------
FINAL SINGLE POINT ENERGY      -876.095013800891
-------------------------   --------------------

[1631542059.927249] [comp0810:14725:0]            sys.c:618  UCX  ERROR shmget(size=2097152 flags=0xfb0) for mm_recv_desc failed: Operation not permitted, please check shared memory limits by 'ipcs -l'
[1631542059.926918] [comp0810:14726:0]            sys.c:618  UCX  ERROR shmget(size=2097152 flags=0xfb0) for mm_recv_desc failed: Operation not permitted, please check shared memory limits by 'ipcs -l'
[1631542059.928630] [comp0810:14727:0]            sys.c:618  UCX  ERROR shmget(size=2097152 flags=0xfb0) for mm_recv_desc failed: Operation not permitted, please check shared memory limits by 'ipcs -l'
[1631542059.931055] [comp0810:14728:0]            sys.c:618  UCX  ERROR shmget(size=2097152 flags=0xfb0) for mm_recv_desc failed: Operation not permitted, please check shared memory limits by 'ipcs -l'
[1631542059.939506] [comp0810:14725:0]            sys.c:618  UCX  ERROR shmget(size=2097152 flags=0xb80) for ucp_am_bufs failed: Operation not permitted, please check shared memory limits by 'ipcs -l'


           ************************************************************
           *        Program running with 4 parallel MPI-processes     *
           *              working on a common directory               *
           ************************************************************
------------------------------------------------------------------------------
                         ORCA SCF GRADIENT CALCULATION
------------------------------------------------------------------------------

[1631542059.939506] [comp0810:14727:0]            sys.c:618  UCX  ERROR shmget(size=2097152 flags=0xb80) for ucp_am_bufs failed: Operation not permitted, please check shared memory limits by 'ipcs -l'
[1631542059.942296] [comp0810:14726:0]            sys.c:618  UCX  ERROR shmget(size=2097152 flags=0xb80) for ucp_am_bufs failed: Operation not permitted, please check shared memory limits by 'ipcs -l'
[1631542060.097290] [comp0810:14728:0]            sys.c:618  UCX  ERROR shmget(size=2097152 flags=0xb80) for ucp_am_bufs failed: Operation not permitted, please check shared memory limits by 'ipcs -l'
Gradient of the Kohn-Sham DFT energy:
Kohn-Sham wavefunction type      ... RKS
Hartree-Fock exchange scaling    ...    0.250
Number of operators              ...    1
Number of atoms                  ...   12
Basis set dimensions             ...  121
Integral neglect threshold       ... 2.5e-11
Integral primitive cutoff        ... 2.5e-12

Nuclear repulsion gradient       ... done
One Electron Gradient            
  ECP gradient                   ... done
Pre-screening matrix             ... done
RI-J gradient                    ... done
COSX-gradient                    ... done
Exchange-correlation gradient    ... done
Dispersion correction            ... done

------------------
CARTESIAN GRADIENT
------------------

   1   C   :    0.000018623   -0.000455180    0.000103956
   2   C   :   -0.000103889    0.000430033   -0.000094433
   3   C   :    0.026314770   -0.024258896   -0.021200076
   4   I   :   -0.001283868    0.000378145    0.000724910
   5   H   :   -0.000127428   -0.000014755    0.000047836
   6   H   :    0.000181796   -0.000187742    0.000035164
   7   H   :   -0.000009850   -0.000212877   -0.000128382
   8   H   :   -0.000223933   -0.000305143    0.000209001
   9   H   :   -0.000208650    0.000014636    0.000096833
  10   H   :   -0.000098937   -0.000037406   -0.000110510
  11   H   :   -0.000006103    0.000248476    0.000163133
  12   Cl  :   -0.024629665    0.023689476    0.020583062

Difference to translation invariance:
           :   -0.0001771354   -0.0007112328    0.0004304929

Norm of the cartesian gradient     ...    0.0576638563
RMS gradient                       ...    0.0096106427
MAX gradient                       ...    0.0263147696

-------
TIMINGS
-------

Total SCF gradient time            ...        1.760 sec

One electron gradient       ....       0.139 sec  (  7.9%)
Prescreening matrices       ....       0.011 sec  (  0.6%)
RI-J Coulomb gradient       ....       0.159 sec  (  9.0%)
COSX gradient               ....       0.561 sec  ( 31.9%)
XC gradient                 ....       0.373 sec  ( 21.2%)
CPCM gradient               ....       0.173 sec  (  9.8%)
   A-Matrix (El+Nuc)        ....       0.006 sec  (  0.3%)
   Potential                ....       0.168 sec  (  9.5%)
[1631542063.754220] [comp0810:14753:0]            sys.c:618  UCX  ERROR shmget(size=2097152 flags=0xfb0) for mm_recv_desc failed: Operation not permitted, please check shared memory limits by 'ipcs -l'
[1631542063.754539] [comp0810:14754:0]            sys.c:618  UCX  ERROR shmget(size=2097152 flags=0xfb0) for mm_recv_desc failed: Operation not permitted, please check shared memory limits by 'ipcs -l'
[1631542063.760933] [comp0810:14751:0]            sys.c:618  UCX  ERROR shmget(size=2097152 flags=0xfb0) for mm_recv_desc failed: Operation not permitted, please check shared memory limits by 'ipcs -l'
[1631542063.830075] [comp0810:14752:0]            sys.c:618  UCX  ERROR shmget(size=2097152 flags=0xfb0) for mm_recv_desc failed: Operation not permitted, please check shared memory limits by 'ipcs -l'
[1631542063.836291] [comp0810:14751:0]            sys.c:618  UCX  ERROR shmget(size=2097152 flags=0xb80) for ucp_am_bufs failed: Operation not permitted, please check shared memory limits by 'ipcs -l'
[1631542063.836624] [comp0810:14752:0]            sys.c:618  UCX  ERROR shmget(size=2097152 flags=0xb80) for ucp_am_bufs failed: Operation not permitted, please check shared memory limits by 'ipcs -l'


           ************************************************************
           *        Program running with 4 parallel MPI-processes     *
           *              working on a common directory               *
           ************************************************************
[1631542063.847651] [comp0810:14753:0]            sys.c:618  UCX  ERROR shmget(size=2097152 flags=0xb80) for ucp_am_bufs failed: Operation not permitted, please check shared memory limits by 'ipcs -l'

-------------------------------------------------------------------------------
                               ORCA SCF HESSIAN
-------------------------------------------------------------------------------

Hessian of the Kohn-Sham DFT energy:
Kohn-Sham wavefunction type                      ... RKS
Hartree-Fock exchange scaling                    ...    0.250
Number of operators                              ...    1
Number of atoms                                  ...   12
Basis set dimensions                             ...  121
Integral neglect threshold                       ... 2.5e-11
Integral primitive cutoff                        ... 2.5e-12

Setting up DFT Hessian calculations              ... 
Electron density on the grid                     ... found on disk
Electron density on the final grid               ... found on disk
Building xc-kernel on the grid                   ... done   (      0.0 sec)
Building xc-kernel on the final grid             ... done   (      0.0 sec)
[1631542063.879784] [comp0810:14754:0]            sys.c:618  UCX  ERROR shmget(size=2097152 flags=0xb80) for ucp_am_bufs failed: Operation not permitted, please check shared memory limits by 'ipcs -l'
                                                     done   (      0.1 sec)

Nuclear repulsion Hessian                        ... done   (      0.0 sec)

----------------------------------------------
Forming right-hand sides of CP-SCF equations     ...
----------------------------------------------
One electron integral derivatives                ... done   (      3.4 sec)
Transforming the overlap derivative matrices     ... done   (      0.0 sec)
[1631542068.114882] [comp0810:14753:0]            sys.c:618  UCX  ERROR shmget(size=6291456 flags=0xfb0) for mm_recv_desc failed: Operation not permitted, please check shared memory limits by 'ipcs -l'
Adding tr(S(x)F(y) C-PCM term to the hessian     ... done   (      0.5 sec)
Making the Q(x) pseudodensities                  ... done   (      0.0 sec)
Adding the E*S(x)*S(y) terms to the Hessian      ... done   (      0.0 sec)
Calculating energy weighted overlap derivatives  ... done   (      0.0 sec)
F(y): ECP integral derivatives                   ... done   (      0.7 sec)
Two electron integral derivatives (RI)           ... done   (      1.6 sec)
Exchange-correlation integral derivatives        ... done   (      3.1 sec)
tr(F(y)Q(x)) contribution to the Hessian         ... done   (      0.0 sec)
Response fock operator R(S(x)) (RIJCOSX)         ... done   (      1.9 sec)
XC Response fock operator R(S(x))                ... done   (      1.0 sec)
tr(F(y)S(x)) contribution to the Hessian         ... done   (      0.0 sec)
Transforming and finalizing RHSs                 ... done   (      0.0 sec)

----------------------------------------------
Solving the CP-SCF equations (RIJCOSX)           ...
----------------------------------------------
     CP-SCF ITERATION   0: 
     CP-SCF ITERATION   1:      0.000829544595
     CP-SCF ITERATION   2:      0.000085736903
     CP-SCF ITERATION   3:      0.000008180803
     CP-SCF ITERATION   4:      0.000000375527
     CP-SCF ITERATION   5:      0.000000016196
     CP-SCF ITERATION   6:      0.000000008678

                                                 ... done   (     11.4 sec)
Forming perturbed density Hessian contributions  ... done   (      0.0 sec)
Calculating [Q*(d^2 A/dXdY)*Q  ] C-PCM term      ... done   (      0.0 sec)
Calculating [d^2(V_N)/(dXdY)*Q ] C-PCM term      ... done   (      0.0 sec)
Calculating [d^2(V_el)/(dXdY)*Q] C-PCM term      ... done   (      0.3 sec)
Calculating C-PCM term that depends on dQ/dX     ... done   (      0.0 sec)
2nd integral derivative contribs (RI)            ... done   (      7.6 sec)
Exchange-correlation Hessian                     ... done   (      3.5 sec)
ECP integral 2nd derivatives                     ... done   (      2.0 sec)
Dispersion correction in the Hessian             ... done   (      0.6 sec)
Dipol derivatives                                ... done   (      0.2 sec)

Total SCF Hessian time: 0 days 0 hours 0 min 39 sec 

Writing the Hessian file to the disk             ... done


Maximum memory used throughout the entire calculation: 137.3 MB

-----------------------
VIBRATIONAL FREQUENCIES
-----------------------

Scaling factor for frequencies =  1.000000000  (already applied!)

   0:         0.00 cm**-1
   1:         0.00 cm**-1
   2:         0.00 cm**-1
   3:         0.00 cm**-1
   4:         0.00 cm**-1
   5:         0.00 cm**-1
   6:        39.39 cm**-1
   7:        67.82 cm**-1
   8:        83.35 cm**-1
   9:       113.56 cm**-1
  10:       161.91 cm**-1
  11:       212.11 cm**-1
  12:       305.18 cm**-1
  13:       420.27 cm**-1
  14:       744.41 cm**-1
  15:       820.72 cm**-1
  16:       910.46 cm**-1
  17:       943.03 cm**-1
  18:       987.96 cm**-1
  19:      1101.38 cm**-1
  20:      1132.91 cm**-1
  21:      1189.21 cm**-1
  22:      1265.62 cm**-1
  23:      1356.00 cm**-1
  24:      1391.30 cm**-1
  25:      1411.83 cm**-1
  26:      1435.27 cm**-1
  27:      1449.89 cm**-1
  28:      1464.45 cm**-1
  29:      3038.87 cm**-1
  30:      3055.39 cm**-1
  31:      3113.51 cm**-1
  32:      3150.69 cm**-1
  33:      3164.40 cm**-1
  34:      3180.79 cm**-1
  35:      3292.05 cm**-1


------------
NORMAL MODES
------------

These modes are the Cartesian displacements weighted by the diagonal matrix
M(i,i)=1/sqrt(m[i]) where m[i] is the mass of the displaced atom
Thus, these vectors are normalized but *not* orthogonal

                  0          1          2          3          4          5    
      0       0.000000   0.000000   0.000000   0.000000   0.000000   0.000000
      1       0.000000   0.000000   0.000000   0.000000   0.000000   0.000000
      2       0.000000   0.000000   0.000000   0.000000   0.000000   0.000000
      3       0.000000   0.000000   0.000000   0.000000   0.000000   0.000000
      4       0.000000   0.000000   0.000000   0.000000   0.000000   0.000000
      5       0.000000   0.000000   0.000000   0.000000   0.000000   0.000000
      6       0.000000   0.000000   0.000000   0.000000   0.000000   0.000000
      7       0.000000   0.000000   0.000000   0.000000   0.000000   0.000000
      8       0.000000   0.000000   0.000000   0.000000   0.000000   0.000000
      9       0.000000   0.000000   0.000000   0.000000   0.000000   0.000000
     10       0.000000   0.000000   0.000000   0.000000   0.000000   0.000000
     11       0.000000   0.000000   0.000000   0.000000   0.000000   0.000000
     12       0.000000   0.000000   0.000000   0.000000   0.000000   0.000000
     13       0.000000   0.000000   0.000000   0.000000   0.000000   0.000000
     14       0.000000   0.000000   0.000000   0.000000   0.000000   0.000000
     15       0.000000   0.000000   0.000000   0.000000   0.000000   0.000000
     16       0.000000   0.000000   0.000000   0.000000   0.000000   0.000000
     17       0.000000   0.000000   0.000000   0.000000   0.000000   0.000000
     18       0.000000   0.000000   0.000000   0.000000   0.000000   0.000000
     19       0.000000   0.000000   0.000000   0.000000   0.000000   0.000000
     20       0.000000   0.000000   0.000000   0.000000   0.000000   0.000000
     21       0.000000   0.000000   0.000000   0.000000   0.000000   0.000000
     22       0.000000   0.000000   0.000000   0.000000   0.000000   0.000000
     23       0.000000   0.000000   0.000000   0.000000   0.000000   0.000000
     24       0.000000   0.000000   0.000000   0.000000   0.000000   0.000000
     25       0.000000   0.000000   0.000000   0.000000   0.000000   0.000000
     26       0.000000   0.000000   0.000000   0.000000   0.000000   0.000000
     27       0.000000   0.000000   0.000000   0.000000   0.000000   0.000000
     28       0.000000   0.000000   0.000000   0.000000   0.000000   0.000000
     29       0.000000   0.000000   0.000000   0.000000   0.000000   0.000000
     30       0.000000   0.000000   0.000000   0.000000   0.000000   0.000000
     31       0.000000   0.000000   0.000000   0.000000   0.000000   0.000000
     32       0.000000   0.000000   0.000000   0.000000   0.000000   0.000000
     33       0.000000   0.000000   0.000000   0.000000   0.000000   0.000000
     34       0.000000   0.000000   0.000000   0.000000   0.000000   0.000000
     35       0.000000   0.000000   0.000000   0.000000   0.000000   0.000000
                  6          7          8          9         10         11    
      0       0.270678  -0.231871   0.103327   0.049652  -0.023327  -0.012525
      1      -0.058380   0.015768  -0.021548  -0.022095  -0.184827  -0.097735
      2      -0.150589   0.142285  -0.098471   0.062701  -0.121599  -0.058200
      3       0.198475  -0.042629  -0.047285   0.189792  -0.074202  -0.023444
      4      -0.117809  -0.085471   0.069405   0.102316   0.031411  -0.045813
[...]
     25       0.437352  -0.086351   0.435629   0.040858  -0.124633   0.012934
     26       0.121874   0.100034  -0.182137   0.030756  -0.006714  -0.086789
     27       0.046222  -0.391117  -0.080970  -0.209849  -0.520799  -0.558262
     28      -0.018106  -0.213480   0.026592   0.321274  -0.000307  -0.068454
     29      -0.025240  -0.340034   0.068312   0.483773   0.182998   0.225101
     30       0.034823  -0.095354  -0.055618   0.335388   0.515229  -0.145009
     31      -0.024640   0.343762   0.004778  -0.551474   0.387713   0.172697
     32      -0.031990  -0.220299   0.047312  -0.371096  -0.336547   0.074743
     33       0.012600   0.003445   0.002845  -0.001211  -0.001074   0.006156
     34      -0.050062   0.002829  -0.001331   0.000925   0.000883  -0.003449
     35      -0.029259   0.009980  -0.002490  -0.004847  -0.003866  -0.007538
                 18         19         20         21         22         23    
      0      -0.041034  -0.093458   0.053651   0.009239   0.064010  -0.027435
      1      -0.031148   0.034557  -0.004335  -0.130067  -0.042521   0.044555
      2       0.001105   0.030418   0.114345   0.080019  -0.070076  -0.050194
      3      -0.002539   0.124296  -0.089459  -0.059809  -0.036091  -0.114238
      4      -0.026221  -0.021628  -0.128907   0.154687   0.016372  -0.082095
      5       0.015734  -0.066615  -0.105118  -0.137718   0.037832  -0.055875
      6       0.024382  -0.050942   0.044271   0.037514  -0.019083   0.015144
      7       0.043581  -0.018482   0.144730  -0.070354   0.012701  -0.017896
      8      -0.017161   0.051410  -0.001149   0.076451   0.018060   0.021622
      9       0.003263  -0.001248   0.000197  -0.000163  -0.000115  -0.000059
     10      -0.001974   0.000181   0.000180  -0.000044  -0.000004  -0.000001
     11      -0.003591   0.001036  -0.000129   0.000164   0.000094   0.000064
     12      -0.155562   0.050250   0.151131  -0.244608  -0.098980   0.235197
     13       0.060668  -0.066535  -0.073313   0.082692   0.074698  -0.154817
     14      -0.236318  -0.247967   0.049181  -0.236854   0.126916   0.296482
     15       0.135353   0.282955   0.245825   0.298088  -0.193546   0.288892
     16       0.044774  -0.098243  -0.083268   0.190782   0.115957  -0.149591
     17       0.090532   0.187970   0.198450   0.250636  -0.173001   0.092420
     18       0.071569  -0.170218   0.045309   0.399615   0.108691   0.072462
     19       0.056295   0.058725   0.004124   0.115976  -0.071847   0.027455
     20      -0.036750  -0.384168   0.006904   0.224630   0.246457   0.317504
     21       0.022581  -0.163836  -0.531777  -0.066838  -0.442731   0.404366
     22      -0.007896  -0.246277  -0.414686   0.154475  -0.201106   0.252992
     23       0.003438   0.137536  -0.218342  -0.121896  -0.363676   0.101025
     24       0.114392   0.394608  -0.327874  -0.025194   0.510591   0.274010
     25       0.044335   0.518711   0.026694   0.047333   0.234394   0.281546
     26       0.081086   0.128649  -0.207792  -0.136893   0.331341   0.171952
     27      -0.279426  -0.003378   0.258314  -0.348187   0.007616   0.126438
     28       0.298879  -0.124078   0.227849  -0.286776   0.010207   0.076993
     29       0.469086  -0.117410   0.030314  -0.115348   0.004083   0.115193
     30      -0.484297   0.076524   0.090713   0.158116   0.022221   0.097555
     31       0.154555  -0.047709   0.061500   0.265574  -0.013647   0.330963
     32       0.450919  -0.068143  -0.023442  -0.079761  -0.016998  -0.080984
     33       0.011183  -0.001997  -0.001628   0.000145  -0.000132   0.000459
     34      -0.006790   0.001386   0.002602  -0.000558   0.000343  -0.000139
     35      -0.010408   0.001474   0.002409  -0.000814   0.000060  -0.000438
                 24         25         26         27         28         29    
      0       0.105625   0.034541   0.033318   0.020341   0.022418  -0.030375
      1       0.002204  -0.002482   0.030373  -0.027754   0.031675   0.009679
      2       0.099876   0.031263   0.009630  -0.027186  -0.020215  -0.040093
      3      -0.075976  -0.033238  -0.082127   0.002827   0.037589   0.001065
      4      -0.057906   0.036655  -0.025753  -0.021862   0.036211  -0.000113
      5      -0.034036  -0.060889  -0.059469  -0.014219   0.003005   0.002118
      6       0.012553  -0.024034   0.075159   0.007184  -0.021046   0.000191
      7      -0.011616  -0.034385   0.094490   0.007755  -0.027228   0.000130
      8       0.018342  -0.006278   0.016908   0.000240  -0.004418  -0.000155
      9      -0.000011  -0.000098  -0.000048  -0.000040  -0.000016  -0.000010
     10      -0.000013   0.000044  -0.000063  -0.000004   0.000035  -0.000001
     11      -0.000052   0.000125  -0.000027   0.000035   0.000038   0.000007
     12      -0.193966  -0.024743  -0.011287  -0.351607  -0.301127   0.301539
     13       0.226921   0.048261   0.061475   0.241938   0.262037   0.410478
     14      -0.323125  -0.044476  -0.049618   0.529288  -0.172946   0.002694
     15      -0.421954  -0.153043  -0.004074   0.294081   0.252857  -0.279040
     16      -0.033783   0.085296  -0.197158   0.474197  -0.479948  -0.056624
     17      -0.160652  -0.050652  -0.029049   0.164313   0.047977   0.564637
     18      -0.265282  -0.034168  -0.132295  -0.309172  -0.381769   0.325037
     19      -0.162095  -0.007809  -0.107239  -0.205382  -0.346326  -0.470818
     20      -0.343388  -0.174014   0.109855  -0.222205   0.432838  -0.102826
     21       0.296449  -0.154388   0.039044   0.062788  -0.083219  -0.002198
     22       0.235255  -0.151905  -0.017961   0.006237  -0.041290   0.000855
     23      -0.193393   0.539547   0.364643   0.043715  -0.018270  -0.000889
     24       0.009228   0.343815   0.294595  -0.016477  -0.068782   0.003344
     25       0.377780  -0.453008  -0.197601   0.021194  -0.050597   0.001229
     26       0.044034   0.084187   0.114453  -0.021819  -0.061625  -0.011060
     27       0.024245   0.247454  -0.432840  -0.020980   0.104866  -0.002105
     28      -0.001163   0.156257  -0.237133  -0.014288   0.052061   0.001744
     29       0.028986   0.189602  -0.314997  -0.024036   0.075770  -0.002316
     30       0.057724   0.056164  -0.046908  -0.005871   0.008535   0.001334
     31       0.153152   0.334591  -0.477991  -0.028857   0.114923  -0.001617
     32      -0.035752  -0.122217   0.194092   0.017364  -0.049885   0.003098
     33      -0.000224   0.000059  -0.000403  -0.000267   0.000181   0.000009
     34       0.000220  -0.000416   0.000016   0.000121   0.000006  -0.000019
     35      -0.000377  -0.000281   0.000181  -0.000015  -0.000028   0.000005
                 30         31         32         33         34         35    
      0      -0.002334   0.026912  -0.060557  -0.023144   0.000191  -0.000230
      1      -0.006328  -0.015464   0.015284  -0.089944  -0.000539  -0.000150
      2       0.002176  -0.026268   0.056978   0.004507   0.000526  -0.000189
      3      -0.007863  -0.051672  -0.024925   0.005607   0.002113   0.000292
      4       0.054230   0.037467   0.016912  -0.008269   0.003199  -0.000845
      5      -0.044448   0.053030   0.026916  -0.001035  -0.000061   0.000556
      6       0.000643  -0.001068  -0.000367   0.000395  -0.033848   0.050256
      7      -0.000860  -0.000147   0.000077   0.000701  -0.053761  -0.047081
      8       0.001101   0.000845   0.000447  -0.000161  -0.014640   0.075529
      9      -0.000030  -0.000014  -0.000007   0.000001  -0.000057  -0.000048
     10      -0.000024  -0.000027  -0.000013   0.000003   0.000062   0.000040
     11       0.000025   0.000010  -0.000001  -0.000002   0.000076  -0.000043
     12       0.040129  -0.019067   0.133010   0.494034   0.001014   0.000176
     13       0.057239  -0.035668   0.190986   0.657690   0.002826   0.000819
     14      -0.001279  -0.005980   0.010404   0.012600  -0.000882  -0.000130
     15       0.009006  -0.132722   0.291557   0.076100   0.000750  -0.001030
     16      -0.000656  -0.030371   0.063813   0.004001   0.000483  -0.000293
     17      -0.017389   0.271515  -0.612865  -0.161919  -0.004214  -0.000696
     18      -0.012831  -0.170877   0.299324  -0.300772  -0.003377  -0.001827
     19       0.015139   0.252200  -0.439063   0.414374   0.003393   0.000477
     20       0.004789   0.050522  -0.083086   0.089870  -0.000508  -0.000754
     21       0.403911   0.352137   0.161158  -0.062350   0.001352  -0.004717
     22      -0.575215  -0.514290  -0.232437   0.089825  -0.003410   0.010407
     23      -0.101165  -0.078756  -0.035329   0.012969   0.000189   0.001537
     24      -0.313345   0.281817   0.139410  -0.002858  -0.001211   0.004915
     25      -0.053005   0.063733   0.030727  -0.000535  -0.001858   0.002492
     26       0.619508  -0.569195  -0.285230   0.005668   0.002023  -0.008046
     27      -0.001414  -0.001514  -0.001193   0.002268  -0.127816  -0.134787
     28       0.004275   0.000550   0.000087  -0.003649   0.548512   0.607359
     29      -0.003503   0.001788   0.001556   0.003250  -0.367098  -0.395644
     30      -0.009054   0.000254  -0.000250  -0.001608   0.501254  -0.453645
     31       0.002032  -0.000399  -0.000492   0.000090   0.053634  -0.056725
     32      -0.011204  -0.001938  -0.001592  -0.001131   0.538113  -0.486537
     33       0.000034  -0.000015   0.000022  -0.000019   0.000316  -0.000075
     34      -0.000208   0.000205   0.000099  -0.000007  -0.000069   0.000092
     35      -0.000065   0.000051   0.000037  -0.000015  -0.000234  -0.000248


-----------
IR SPECTRUM
-----------

 Mode    freq (cm**-1)   T**2         TX         TY         TZ
-------------------------------------------------------------------
   7:        63.47    2.782735  ( -1.615310  -0.276008  -0.311978)
   8:       111.63   10.636170  (  2.705697   1.500142   1.031964)
   9:       137.46   11.058017  (  0.597085  -0.867798  -3.154114)
  10:       166.18   15.201920  (  0.142215  -3.808627   0.822228)
  11:       237.70    1.677843  ( -0.103634  -1.257933  -0.291046)
  12:       340.06   38.715251  (  4.895231  -0.240467  -3.833293)
  13:       394.98    2.112697  ( -0.028743   0.364401  -1.406799)
  14:       750.77   57.505786  ( -4.863665   2.515485   5.246226)
  15:       832.15    7.332350  (  0.412018  -0.664295   2.592548)
  16:       894.84    4.701413  (  1.427629   1.028491  -1.267082)
  17:       924.14   38.336717  (  1.736259  -4.826375  -3.468174)
  18:       927.03  176.914956  ( 10.020096  -2.275306  -8.446041)
  19:      1050.32   81.715331  ( -6.985658   1.716766   5.474360)
  20:      1083.48    9.708227  ( -0.208655   2.911260   1.090529)
  21:      1156.85    0.389018  (  0.503909   0.143865   0.338226)
  22:      1261.40   20.477434  ( -2.986293   1.837139   2.860841)
  23:      1336.53    2.922585  (  0.459121   1.354919   0.935942)
  24:      1380.73   20.570782  ( -1.993693   2.657404  -3.087746)
  25:      1413.02   26.741563  ( -3.195844  -3.790177   1.470613)
  26:      1422.37    8.192631  ( -0.944907  -2.620398   0.658251)
  27:      1448.96   10.212960  ( -1.807540   2.090223   1.605218)
  28:      1464.45    7.364518  ( -1.142708  -1.949397   1.502861)
  29:      3045.83   32.468677  ( -4.127599   0.033407  -3.928166)
  30:      3079.42   13.242913  ( -1.479028   2.396072  -2.305260)
  31:      3124.67    5.383169  ( -1.481952   1.230323   1.293558)
  32:      3144.87   33.078692  ( -4.272375   1.192062   3.661215)
  33:      3152.63   26.423614  ( -1.138264  -4.984422   0.532455)
  34:      3243.27    9.669496  ( -2.573489   0.024545   1.745293)
  35:      3374.57    9.436128  ( -1.955341   1.410197  -1.903710)

The first frequency considered to be a vibration is 7
The total number of vibrations considered is 29


--------------------------
THERMOCHEMISTRY AT 298.15K
--------------------------

Temperature         ... 298.15 K
Pressure            ... 1.00 atm
Total Mass          ... 205.44 AMU

Throughout the following assumptions are being made:
  (1) The electronic state is orbitally nondegenerate
  (2) There are no thermally accessible electronically excited states
  (3) Hindered rotations indicated by low frequency modes are not
      treated as such but are treated as vibrations and this may
      cause some error
  (4) All equations used are the standard statistical mechanics
      equations for an ideal gas
  (5) All vibrations are strictly harmonic

freq.      63.47  E(vib)   ...       0.51 
freq.     111.63  E(vib)   ...       0.45 
freq.     137.46  E(vib)   ...       0.42 
freq.     166.18  E(vib)   ...       0.39 
freq.     237.70  E(vib)   ...       0.32 
freq.     340.06  E(vib)   ...       0.23 
freq.     394.98  E(vib)   ...       0.20 
freq.     750.77  E(vib)   ...       0.06 
freq.     832.15  E(vib)   ...       0.04 
freq.     894.84  E(vib)   ...       0.03 
freq.     924.14  E(vib)   ...       0.03 
freq.     927.03  E(vib)   ...       0.03 
freq.    1050.32  E(vib)   ...       0.02 
freq.    1083.48  E(vib)   ...       0.02 
freq.    1156.85  E(vib)   ...       0.01 
freq.    1261.40  E(vib)   ...       0.01 
freq.    1336.53  E(vib)   ...       0.01 
freq.    1380.73  E(vib)   ...       0.01 
freq.    1413.02  E(vib)   ...       0.00 
freq.    1422.37  E(vib)   ...       0.00 
freq.    1448.96  E(vib)   ...       0.00 
freq.    1464.45  E(vib)   ...       0.00 
freq.    3045.83  E(vib)   ...       0.00 
freq.    3079.42  E(vib)   ...       0.00 
freq.    3124.67  E(vib)   ...       0.00 
freq.    3144.87  E(vib)   ...       0.00 
freq.    3152.63  E(vib)   ...       0.00 
freq.    3243.27  E(vib)   ...       0.00 
freq.    3374.57  E(vib)   ...       0.00 

------------
INNER ENERGY
------------

The inner energy is: U= E(el) + E(ZPE) + E(vib) + E(rot) + E(trans)
    E(el)   - is the total energy from the electronic structure calculation
              = E(kin-el) + E(nuc-el) + E(el-el) + E(nuc-nuc)
    E(ZPE)  - the the zero temperature vibrational energy from the frequency calculation
    E(vib)  - the the finite temperature correction to E(ZPE) due to population
              of excited vibrational states
    E(rot)  - is the rotational thermal energy
    E(trans)- is the translational thermal energy

Summary of contributions to the inner energy U:
Electronic energy                ...   -876.07182951 Eh
Zero point energy                ...      0.09332236 Eh      58.56 kcal/mol
Thermal vibrational correction   ...      0.00444126 Eh       2.79 kcal/mol
Thermal rotational correction    ...      0.00141627 Eh       0.89 kcal/mol
Thermal translational correction ...      0.00141627 Eh       0.89 kcal/mol
-----------------------------------------------------------------------
Total thermal energy                   -875.97123335 Eh


Summary of corrections to the electronic energy:
(perhaps to be used in another calculation)
Total thermal correction                  0.00727380 Eh       4.56 kcal/mol
Non-thermal (ZPE) correction              0.09332236 Eh      58.56 kcal/mol
-----------------------------------------------------------------------
Total correction                          0.10059616 Eh      63.12 kcal/mol


--------
ENTHALPY
--------

The enthalpy is H = U + kB*T
                kB is Boltzmann's constant
Total free energy                 ...   -875.97123335 Eh 
Thermal Enthalpy correction       ...      0.00094421 Eh       0.59 kcal/mol
-----------------------------------------------------------------------
Total Enthalpy                    ...   -875.97028914 Eh


Note: Only C1 symmetry has been detected, increase convergence thresholds 
      if your molecule has a higher symmetry. Symmetry factor of 1.0 is   
      used for the rotational entropy correction. 
 

Note: Rotational entropy computed according to Herzberg 
Infrared and Raman Spectra, Chapter V,1, Van Nostrand Reinhold, 1945 
Point Group:  C1, Symmetry Number:   1  
Rotational constants in cm-1:     0.115416     0.020414     0.017930 

Vibrational entropy computed according to the QRRHO of S. Grimme
Chem.Eur.J. 2012 18 9955


-------
ENTROPY
-------

The entropy contributions are T*S = T*(S(el)+S(vib)+S(rot)+S(trans))
     S(el)   - electronic entropy
     S(vib)  - vibrational entropy
     S(rot)  - rotational entropy
     S(trans)- translational entropy
The entropies will be listed as mutliplied by the temperature to get
units of energy

Electronic entropy                ...      0.00000000 Eh      0.00 kcal/mol
Vibrational entropy               ...      0.00803827 Eh      5.04 kcal/mol
Rotational entropy                ...      0.01426573 Eh      8.95 kcal/mol
Translational entropy             ...      0.01989095 Eh     12.48 kcal/mol
-----------------------------------------------------------------------
Final entropy term                ...      0.04219494 Eh     26.48 kcal/mol

In case the symmetry of your molecule has not been determined correctly
or in case you have a reason to use a different symmetry number we print 
out the resulting rotational entropy values for sn=1,12 :
 --------------------------------------------------------
|  sn= 1 | S(rot)=       0.01426573 Eh      8.95 kcal/mol|
|  sn= 2 | S(rot)=       0.01361127 Eh      8.54 kcal/mol|
|  sn= 3 | S(rot)=       0.01322844 Eh      8.30 kcal/mol|
|  sn= 4 | S(rot)=       0.01295681 Eh      8.13 kcal/mol|
|  sn= 5 | S(rot)=       0.01274613 Eh      8.00 kcal/mol|
|  sn= 6 | S(rot)=       0.01257398 Eh      7.89 kcal/mol|
|  sn= 7 | S(rot)=       0.01242843 Eh      7.80 kcal/mol|
|  sn= 8 | S(rot)=       0.01230236 Eh      7.72 kcal/mol|
|  sn= 9 | S(rot)=       0.01219115 Eh      7.65 kcal/mol|
|  sn=10 | S(rot)=       0.01209167 Eh      7.59 kcal/mol|
|  sn=11 | S(rot)=       0.01200168 Eh      7.53 kcal/mol|
|  sn=12 | S(rot)=       0.01191952 Eh      7.48 kcal/mol|
 --------------------------------------------------------


-------------------
GIBBS FREE ENERGY
-------------------

The Gibbs free energy is G = H - T*S

Total enthalpy                    ...   -875.97028914 Eh 
Total entropy correction          ...     -0.04219494 Eh    -26.48 kcal/mol
-----------------------------------------------------------------------
Final Gibbs free energy         ...   -876.01248408 Eh

For completeness - the Gibbs free energy minus the electronic energy
G-E(el)                           ...      0.05934543 Eh     37.24 kcal/mol

[1631543028.196210] [comp0810:20283:0]            sys.c:618  UCX  ERROR shmget(size=2097152 flags=0xfb0) for mm_recv_desc failed: Operation not permitted, please check shared memory limits by 'ipcs -l'
[1631543028.200981] [comp0810:20285:0]            sys.c:618  UCX  ERROR shmget(size=2097152 flags=0xfb0) for mm_recv_desc failed: Operation not permitted, please check shared memory limits by 'ipcs -l'
[1631543028.201295] [comp0810:20286:0]            sys.c:618  UCX  ERROR shmget(size=2097152 flags=0xfb0) for mm_recv_desc failed: Operation not permitted, please check shared memory limits by 'ipcs -l'
[1631543028.206337] [comp0810:20284:0]            sys.c:618  UCX  ERROR shmget(size=2097152 flags=0xfb0) for mm_recv_desc failed: Operation not permitted, please check shared memory limits by 'ipcs -l'
[1631543028.216672] [comp0810:20284:0]            sys.c:618  UCX  ERROR shmget(size=2097152 flags=0xb80) for ucp_am_bufs failed: Operation not permitted, please check shared memory limits by 'ipcs -l'

Timings for individual modules:

Sum of individual times         ...      972.247 sec (=  16.204 min)
GTO integral calculation        ...       76.487 sec (=   1.275 min)   7.9 %
SCF iterations                  ...      531.042 sec (=   8.851 min)  54.6 %
SCF Gradient evaluation         ...      186.807 sec (=   3.113 min)  19.2 %
Geometry relaxation             ...        5.084 sec (=   0.085 min)   0.5 %
Analytical frequency calculation...      172.826 sec (=   2.880 min)  17.8 %
                             ****ORCA TERMINATED NORMALLY****
TOTAL RUN TIME: 0 days 0 hours 16 minutes 24 seconds 398 msec
