
                                 *****************
                                 * O   R   C   A *
                                 *****************

           --- An Ab Initio, DFT and Semiempirical electronic structure package ---

                  #######################################################
                  #                        -***-                        #
                  #          Department of theory and spectroscopy      #
                  #               Directorship: Frank Neese             #
                  #        Max Planck Institute fuer Kohlenforschung    #
                  #                Kaiser Wilhelm Platz 1               #
                  #                 D-45470 Muelheim/Ruhr               #
                  #                      Germany                        #
                  #                                                     #
                  #                  All rights reserved                #
                  #                        -***-                        #
                  #######################################################


                         Program Version 4.2.1 -  RELEASE  -


 With contributions from (in alphabetic order):
   Daniel Aravena         : Magnetic Suceptibility
   Michael Atanasov       : Ab Initio Ligand Field Theory (pilot matlab implementation)
   Alexander A. Auer      : GIAO ZORA, VPT2
   Ute Becker             : Parallelization
   Giovanni Bistoni       : ED, misc. LED, open-shell LED, HFLD
   Martin Brehm           : Molecular dynamics
   Dmytro Bykov           : SCF Hessian
   Vijay G. Chilkuri      : MRCI spin determinant printing, contributions to CSF-ICE
   Dipayan Datta          : RHF DLPNO-CCSD density
   Achintya Kumar Dutta   : EOM-CC, STEOM-CC
   Dmitry Ganyushin       : Spin-Orbit,Spin-Spin,Magnetic field MRCI
   Miquel Garcia          : C-PCM Hessian, Gaussian charge scheme
   Yang Guo               : DLPNO-NEVPT2, CIM, IAO-localization
   Andreas Hansen         : Spin unrestricted coupled pair/coupled cluster methods
   Benjamin Helmich-Paris : CASSCF linear response (MC-RPA)
   Lee Huntington         : MR-EOM, pCC
   Robert Izsak           : Overlap fitted RIJCOSX, COSX-SCS-MP3, EOM
   Christian Kollmar      : KDIIS, OOCD, Brueckner-CCSD(T), CCSD density
   Simone Kossmann        : Meta GGA functionals, TD-DFT gradient, OOMP2, MP2 Hessian
   Martin Krupicka        : AUTO-CI
   Lucas Lang             : DCDCAS
   Dagmar Lenk            : GEPOL surface, SMD
   Dimitrios Liakos       : Extrapolation schemes; Compound Job, initial MDCI parallelization
   Dimitrios Manganas     : Further ROCIS development; embedding schemes
   Dimitrios Pantazis     : SARC Basis sets
   Taras Petrenko         : DFT Hessian,TD-DFT gradient, ASA, ECA, R-Raman, ABS, FL, XAS/XES, NRVS
   Peter Pinski           : DLPNO-MP2, DLPNO-MP2 Gradient
   Christoph Reimann      : Effective Core Potentials
   Marius Retegan         : Local ZFS, SOC
   Christoph Riplinger    : Optimizer, TS searches, QM/MM, DLPNO-CCSD(T), (RO)-DLPNO pert. Triples
   Tobias Risthaus        : Range-separated hybrids, TD-DFT gradient, RPA, STAB
   Michael Roemelt        : Original ROCIS implementation
   Masaaki Saitow         : Open-shell DLPNO-CCSD energy and density
   Barbara Sandhoefer     : DKH picture change effects
   Avijit Sen             : IP-ROCIS
   Kantharuban Sivalingam : CASSCF convergence, NEVPT2, FIC-MRCI
   Bernardo de Souza      : ESD, SOC TD-DFT
   Georgi Stoychev        : AutoAux, RI-MP2 NMR
   Willem Van den Heuvel  : Paramagnetic NMR
   Boris Wezisla          : Elementary symmetry handling
   Frank Wennmohs         : Technical directorship


 We gratefully acknowledge several colleagues who have allowed us to
 interface, adapt or use parts of their codes:
   Stefan Grimme, W. Hujo, H. Kruse,             : VdW corrections, initial TS optimization,
                  C. Bannwarth                     DFT functionals, gCP, sTDA/sTD-DF
   Ed Valeev, F. Pavosevic, A. Kumar             : LibInt (2-el integral package), F12 methods
   Garnet Chan, S. Sharma, J. Yang, R. Olivares  : DMRG
   Ulf Ekstrom                                   : XCFun DFT Library
   Mihaly Kallay                                 : mrcc  (arbitrary order and MRCC methods)
   Andreas Klamt, Michael Diedenhofen            : otool_cosmo (COSMO solvation model)
   Jiri Pittner, Ondrej Demel                    : Mk-CCSD
   Frank Weinhold                                : gennbo (NPA and NBO analysis)
   Christopher J. Cramer and Donald G. Truhlar   : smd solvation model
   Lars Goerigk                                  : TD-DFT with DH, B97 family of functionals
   V. Asgeirsson, H. Jonsson                     : NEB implementation
   FAccTs GmbH                                   : IRC, NEB, NEB-TS, Multilevel, MM, QM/MM, CI optimization
   S Lehtola, MJT Oliveira, MAL Marques          : LibXC Library


 Your calculation uses the libint2 library for the computation of 2-el integrals
 For citations please refer to: http://libint.valeyev.net

 Your ORCA version has been built with support for libXC version: 4.2.3
 For citations please refer to: https://tddft.org/programs/libxc/

 This ORCA versions uses:
   CBLAS   interface :  Fast vector & matrix operations
   LAPACKE interface :  Fast linear algebra routines
   SCALAPACK package :  Parallel linear algebra routines


Your calculation utilizes the atom-pairwise dispersion correction
with the Becke-Johnson damping scheme (D3BJ)
Cite in your paper:
S.Grimme, S.Ehrlich, L.Goerigk, J Comput Chem, (2011), 32, 1456–1465 
S.Grimme, J.Antony, S.Ehrlich and H.Krieg, J.Chem.Phys., 132, (2010), 154104 
   

----- Orbital basis set information -----
Your calculation utilizes the basis: def2-SVP
   F. Weigend and R. Ahlrichs, Phys. Chem. Chem. Phys. 7, 3297 (2005).

----- AuxJ basis set information -----
Your calculation utilizes the auxiliary basis: def2/J
   F. Weigend, Phys. Chem. Chem. Phys. 8, 1057 (2006).

cite the ECPs for I  [Def2-ECP] as follows:
Ce-Yb(ecp-28): M. Dolg, H. Stoll, H.Preuss, J. Chem. Phys., 1989, 90, 1730-1734.
Y-Cd(ecp-28), Hf-Hg(ecp-46): D. Andrae,U. Haeussermann, M. Dolg, H. Stoll, H. Preuss, Theor. Chim. Acta, 1990, 77, 123-141.
In-Sb(ecp-28), Tl-Bi(ecp-46): B. Metz, H. Stoll, M. Dolg, J. Chem. Phys., 2000, 113, 2563-2569.
Te-Xe(ecp-28), Po-Rn(ecp-46): K. A. Peterson, D. Figgen, E. Goll, H. Stoll, M. Dolg, J. Chem. Phys., 2003, 119, 11113-11123.
Rb(ecp-28), Cs(ecp-46): T. Leininger, A. Nicklass, W. Kuechle, H. Stoll, M. Dolg, A. Bergner, Chem. Phys. Lett., 1996, 255, 274-280.
Sr(ecp-28), Ba(ecp-46): M. Kaupp, P. V. Schleyer, H. Stoll and H. Preuss, J. Chem. Phys., 1991, 94, 1360-1366.
La(ecp-46): M. Dolg, H. Stoll, A. Savin, H. Preuss, Theor. Chim. Acta, 1989, 75, 173-194.
Lu(ecp-28): X. Cao, M. Dolg, J. Chem. Phys., 2001, 115, 7348-7355.

ECP parameters for I  [Def2-ECP] have been obtained from:
TURBOMOLE (7.0.2)

================================================================================
                                        WARNINGS
                       Please study these warnings very carefully!
================================================================================


WARNING: Geometry Optimization
  ===> : Switching off AutoStart
         For restart on a previous wavefunction, please use MOREAD

INFO   : the flag for use of LIBINT has been found!

================================================================================
                                       INPUT FILE
================================================================================
NAME = manual_357_redo_3.inp
|  1> ! OptTS Freq PBE0 RIJCOSX D3BJ def2-SVP def2/J CPCM(Acetone)
|  2> %geom
|  3> modify_internal
|  4> { B 3 14 A } end
|  5> end
|  6> %geom
|  7> modify_internal
|  8> { B 3 4 A } end
|  9> end
| 10> %output 
| 11> xyzfile=True 
| 12> end 
| 13> %scf 
| 14> maxiter 250 
| 15> end
| 16> %output
| 17> Print[P_Hirshfeld] = 1
| 18> end
| 19> % maxcore
| 20> 4000
| 21> %geom
| 22> Calc_Hess true
| 23> Recalc_Hess 30
| 24> Trust -0.1
| 25> MaxIter 150
| 26> end
| 27> %pal nprocs 4
| 28> end
| 29> *xyz -1 1
| 30> C     2.39274   0.14302  -0.92768
| 31> C     1.02683   0.78234  -0.69679
| 32> C     0.62904   1.74746  -1.80892
| 33> C    -0.04097  -0.25020  -0.43572
| 34> I   -0.71578   0.18185   1.88201
| 35> H     2.37224  -0.46166  -1.84606
| 36> H     3.16903   0.91782  -1.02107
| 37> H     2.66760  -0.51504  -0.08816
| 38> H     1.09277   1.37060   0.23255
| 39> H    -0.32014   2.25414  -1.57136
| 40> H     1.39842   2.52300  -1.94482
| 41> H     0.50311   1.19464  -2.75088
| 42> H    -1.07118  -0.06902  -0.72448
| 43> H     0.21935  -1.25460  -0.11997
| 44> Cl   -0.02967  -1.40001  -2.65132
| 45> *
| 46> 
| 47>                          ****END OF INPUT****
================================================================================

                       *****************************
                       * Geometry Optimization Run *
                       *****************************

Geometry optimization settings:
Update method            Update   .... Bofill
Choice of coordinates    CoordSys .... Z-matrix Internals
Initial Hessian          InHess   .... Almoef's Model

Convergence Tolerances:
Energy Change            TolE     ....  5.0000e-06 Eh
Max. Gradient            TolMAXG  ....  3.0000e-04 Eh/bohr
RMS Gradient             TolRMSG  ....  1.0000e-04 Eh/bohr
Max. Displacement        TolMAXD  ....  4.0000e-03 bohr
RMS Displacement         TolRMSD  ....  2.0000e-03 bohr
Strict Convergence                ....  False
------------------------------------------------------------------------------
                        ORCA OPTIMIZATION COORDINATE SETUP
------------------------------------------------------------------------------

The optimization will be done in new redundant internal coordinates
Making redundant internal coordinates   ...  (new redundants) Bond  14,  3 is already included
Bond   4,  3 is already included
done
Following TS mode number                ...     0
Evaluating the initial hessian          ...  (Is done on the fly) done
Evaluating the coordinates              ...  done
Calculating the B-matrix                .... done
Calculating the G-matrix                .... done
Diagonalizing the G-matrix              .... done
The first mode is                       ....   85
The number of degrees of freedom        ....   39

    -----------------------------------------------------------------
                    Redundant Internal Coordinates


    -----------------------------------------------------------------
         Definition                    Initial Value    d2E/dq (diagonal element)
    -----------------------------------------------------------------
      1. B(C   1,C   0)                  1.5257         0.000000   
      2. B(C   2,C   1)                  1.5253         0.000000   
      3. B(C   3,C   1)                  1.5081         0.000000   
      4. B(I   4,C   3)                  2.4523         0.000000   
      5. B(I   4,C   1)                  3.1698         0.000000   
      6. B(H   5,C   0)                  1.0998         0.000000   
      7. B(H   6,C   0)                  1.1008         0.000000   
      8. B(H   7,C   0)                  1.1015         0.000000   
      9. B(H   8,I   4)                  2.7212         0.000000   
     10. B(H   8,C   1)                  1.1018         0.000000   
     11. B(H   9,C   2)                  1.1019         0.000000   
     12. B(H  10,C   2)                  1.1009         0.000000   
     13. B(H  11,C   2)                  1.0994         0.000000   
     14. B(H  12,C   3)                  1.0851         0.000000   
     15. B(H  12,I   4)                  2.6425         0.000000   
     16. B(H  13,C   3)                  1.0846         0.000000   
     17. B(H  13,I   4)                  2.6355         0.000000   
     18. B(Cl 14,H  12)                  2.5630         0.000000   
     19. B(Cl 14,H  11)                  2.6507         0.000000   
     20. B(Cl 14,H   5)                  2.7015         0.000000   
     21. B(Cl 14,C   3)                  2.4962         0.000000   
     22. B(Cl 14,H  13)                  2.5477         0.000000   
     23. B(Cl 14,C   1)                  3.1143         0.000000   
     24. A(C   1,C   0,H   6)          110.4423         0.000000   
     25. A(H   5,C   0,H   7)          108.2172         0.000000   
     26. A(C   1,C   0,H   7)          111.0011         0.000000   
     27. A(H   5,C   0,H   6)          109.2269         0.000000   
     28. A(C   1,C   0,H   5)          109.8819         0.000000   
     29. A(H   6,C   0,H   7)          108.0102         0.000000   
     30. A(C   3,C   1,I   4)           48.7173         0.000000   
     31. A(C   2,C   1,C   3)          112.0101         0.000000   
     32. A(C   2,C   1,I   4)          124.7279         0.000000   
     33. A(C   2,C   1,H   8)          107.0236         0.000000   
     34. A(C   3,C   1,H   8)          105.1821         0.000000   
     35. A(C   2,C   1,Cl 14)           84.1069         0.000000   
     36. A(C   0,C   1,Cl 14)           85.1296         0.000000   
     37. A(I   4,C   1,H   8)           56.4857         0.000000   
     38. A(C   0,C   1,H   8)          107.3243         0.000000   
     39. A(C   0,C   1,C   2)          112.8476         0.000000   
     40. A(I   4,C   1,Cl 14)          101.0306         0.000000   
     41. A(C   0,C   1,C   3)          111.9118         0.000000   
     42. A(H   8,C   1,Cl 14)          157.4812         0.000000   
     43. A(C   3,C   1,Cl 14)           52.3158         0.000000   
     44. A(C   0,C   1,I   4)          122.4062         0.000000   
     45. A(H   9,C   2,H  10)          107.7409         0.000000   
     46. A(C   1,C   2,H  10)          110.7017         0.000000   
     47. A(C   1,C   2,H   9)          111.0032         0.000000   
     48. A(H  10,C   2,H  11)          109.1788         0.000000   
     49. A(H   9,C   2,H  11)          108.4977         0.000000   
     50. A(C   1,C   2,H  11)          109.6580         0.000000   
     51. A(I   4,C   3,H  13)           87.3665         0.000000   
     52. A(I   4,C   3,H  12)           87.7558         0.000000   
     53. A(C   1,C   3,I   4)          103.7575         0.000000   
     54. A(C   1,C   3,H  12)          120.7841         0.000000   
     55. A(H  12,C   3,H  13)          117.3848         0.000000   
     56. A(C   1,C   3,H  13)          120.9636         0.000000   
     57. A(I   4,C   3,Cl 14)          157.1121         0.000000   
     58. A(H  13,C   3,Cl 14)           80.2553         0.000000   
     59. A(H  12,C   3,Cl 14)           81.0841         0.000000   
     60. A(C   1,C   3,Cl 14)           99.1204         0.000000   
     61. A(C   1,I   4,C   3)           27.5252         0.000000   
     62. A(C   1,Cl 14,C   3)           28.5638         0.000000   
     63. D(H   8,C   1,C   0,H   7)     60.0066         0.000000   
     64. D(I   4,C   1,C   0,H   5)    118.8187         0.000000   
     65. D(C   2,C   1,C   0,H   5)    -62.6696         0.000000   
     66. D(C   3,C   1,C   0,H   7)    -54.9015         0.000000   
     67. D(C   3,C   1,C   0,H   6)   -174.6724         0.000000   
     68. D(Cl 14,C   1,C   0,H   7)   -100.8287         0.000000   
     69. D(H   8,C   1,C   0,H   5)    179.6708         0.000000   
     70. D(H   8,C   1,C   0,H   6)    -59.7644         0.000000   
     71. D(C   2,C   1,C   0,H   6)     57.8953         0.000000   
     72. D(Cl 14,C   1,C   0,H   6)    139.4004         0.000000   
     73. D(C   3,C   1,C   0,H   5)     64.7627         0.000000   
     74. D(Cl 14,C   1,C   0,H   5)     18.8355         0.000000   
     75. D(I   4,C   1,C   0,H   6)   -120.6165         0.000000   
     76. D(C   2,C   1,C   0,H   7)    177.6662         0.000000   
     77. D(I   4,C   1,C   0,H   7)     -0.8456         0.000000   
     78. D(H  11,C   2,C   1,Cl 14)    -17.2990         0.000000   
     79. D(H  11,C   2,C   1,I   4)   -116.6507         0.000000   
     80. D(H  11,C   2,C   1,H   8)   -177.2856         0.000000   
     81. D(H  11,C   2,C   1,C   0)     64.8781         0.000000   
     82. D(H  10,C   2,C   1,Cl 14)   -137.8246         0.000000   
     83. D(H  10,C   2,C   1,I   4)    122.8237         0.000000   
     84. D(H   9,C   2,C   1,I   4)      3.2188         0.000000   
     85. D(H   9,C   2,C   1,H   8)    -57.4161         0.000000   
     86. D(H   9,C   2,C   1,Cl 14)    102.5705         0.000000   
     87. D(H  11,C   2,C   1,C   3)    -62.5023         0.000000   
     88. D(H  10,C   2,C   1,C   3)    176.9720         0.000000   
     89. D(H  10,C   2,C   1,H   8)     62.1888         0.000000   
     90. D(H  10,C   2,C   1,C   0)    -55.6475         0.000000   
     91. D(H   9,C   2,C   1,C   3)     57.3672         0.000000   
     92. D(H   9,C   2,C   1,C   0)   -175.2523         0.000000   
     93. D(H  12,C   3,C   1,C   0)   -149.7691         0.000000   
     94. D(Cl 14,C   3,C   1,I   4)   -179.3174         0.000000   
     95. D(Cl 14,C   3,C   1,C   2)     63.1160         0.000000   
     96. D(Cl 14,C   3,C   1,C   0)    -64.7642         0.000000   
     97. D(I   4,C   3,C   1,Cl 14)    179.3174         0.000000   
     98. D(I   4,C   3,C   1,C   2)   -117.5665         0.000000   
     99. D(I   4,C   3,C   1,C   0)    114.5532         0.000000   
    100. D(H  13,C   3,C   1,Cl 14)     84.0539         0.000000   
    101. D(H  13,C   3,C   1,I   4)    -95.2635         0.000000   
    102. D(H  13,C   3,C   1,H   8)    -96.9242         0.000000   
    103. D(H  13,C   3,C   1,C   2)    147.1700         0.000000   
    104. D(I   4,C   3,C   1,H   8)     -1.6608         0.000000   
    105. D(H  13,C   3,C   1,C   0)     19.2897         0.000000   
    106. D(H  12,C   3,C   1,Cl 14)    -85.0048         0.000000   
    107. D(H  12,C   3,C   1,I   4)     95.6777         0.000000   
    108. D(Cl 14,C   3,C   1,H   8)    179.0218         0.000000   
    109. D(H  12,C   3,C   1,H   8)     94.0170         0.000000   
    110. D(H  12,C   3,C   1,C   2)    -21.8888         0.000000   
    111. D(C   1,I   4,C   3,H  13)    121.2644         0.000000   
    112. D(C   1,I   4,C   3,H  12)   -121.1802         0.000000   
    113. D(C   3,I   4,C   1,Cl 14)     -0.5503         0.000000   
    114. D(C   3,I   4,C   1,H   8)    178.0775         0.000000   
    115. D(C   3,I   4,C   1,C   2)     89.8989         0.000000   
    116. D(C   1,I   4,C   3,Cl 14)    178.2670         0.000000   
    117. D(C   3,I   4,C   1,C   0)    -91.7698         0.000000   
    118. D(C   1,Cl 14,C   3,I   4)   -178.2952         0.000000   
    119. D(C   1,Cl 14,C   3,H  13)   -120.0754         0.000000   
    120. D(C   1,Cl 14,C   3,H  12)    119.9678         0.000000   
    121. D(C   3,Cl 14,C   1,I   4)      0.5226         0.000000   
    122. D(C   3,Cl 14,C   1,H   8)     -2.4656         0.000000   
    123. D(C   3,Cl 14,C   1,C   2)   -123.7663         0.000000   
    124. D(C   3,Cl 14,C   1,C   0)    122.6209         0.000000   
    -----------------------------------------------------------------

Number of atoms                         .... 15
Number of degrees of freedom            .... 124

         *************************************************************
         *                GEOMETRY OPTIMIZATION CYCLE   1            *
         *************************************************************
---------------------------------
CARTESIAN COORDINATES (ANGSTROEM)
---------------------------------
  C      2.392740    0.143020   -0.927680
  C      1.026830    0.782340   -0.696790
  C      0.629040    1.747460   -1.808920
  C     -0.040970   -0.250200   -0.435720
  I     -0.715780    0.181850    1.882010
  H      2.372240   -0.461660   -1.846060
  H      3.169030    0.917820   -1.021070
  H      2.667600   -0.515040   -0.088160
  H      1.092770    1.370600    0.232550
  H     -0.320140    2.254140   -1.571360
  H      1.398420    2.523000   -1.944820
  H      0.503110    1.194640   -2.750880
  H     -1.071180   -0.069020   -0.724480
  H      0.219350   -1.254600   -0.119970
  Cl    -0.029670   -1.400010   -2.651320

----------------------------
CARTESIAN COORDINATES (A.U.)
----------------------------
  NO LB      ZA    FRAG     MASS         X           Y           Z
   0 C     6.0000    0    12.011    4.521623    0.270269   -1.753061
   1 C     6.0000    0    12.011    1.940427    1.478408   -1.316742
   2 C     6.0000    0    12.011    1.188713    3.302221   -3.418363
   3 C     6.0000    0    12.011   -0.077422   -0.472809   -0.823391
   4 I    25.0000*   0   126.900   -1.352628    0.343647    3.556483
   5 H     1.0000    0     1.008    4.482884   -0.872411   -3.488548
   6 H     1.0000    0     1.008    5.988599    1.734428   -1.929543
   7 H     1.0000    0     1.008    5.041033   -0.973285   -0.166598
   8 H     1.0000    0     1.008    2.065036    2.590059    0.439456
   9 H     1.0000    0     1.008   -0.604977    4.259707   -2.969440
  10 H     1.0000    0     1.008    2.642631    4.767779   -3.675177
  11 H     1.0000    0     1.008    0.950740    2.257542   -5.198410
  12 H     1.0000    0     1.008   -2.024237   -0.130429   -1.369069
  13 H     1.0000    0     1.008    0.414511   -2.370850   -0.226710
  14 Cl   17.0000    0    35.453   -0.056068   -2.645635   -5.010269
* core charge reduced due to ECP

--------------------------------
INTERNAL COORDINATES (ANGSTROEM)
--------------------------------
 C      0   0   0     0.000000000000     0.00000000     0.00000000
 C      1   0   0     1.525696687615     0.00000000     0.00000000
 C      2   1   0     1.525295589517   112.84764788     0.00000000
 C      2   1   3     1.508142313079   111.91183111   127.43230084
 I      4   2   1     2.452327076778   103.75752220   114.55319752
 H      1   2   3     1.099763600416   109.88194630   297.33042644
 H      1   2   3     1.100755602393   110.44227904    57.89525944
 H      1   2   3     1.101537477165   111.00111978   177.66619205
 H      2   1   3     1.101848785814   107.32429528   242.34038482
 H      3   2   1     1.101862989849   111.00316276   184.74765226
 H      3   2   1     1.100852708585   110.70172314   304.35250251
 H      3   2   1     1.099434836132   109.65797099    64.87814320
 H      4   2   1     1.085145692569   120.78411360   210.23092517
 H      4   2   1     1.084566238134   120.96358473    19.28970701
 Cl     4   2   1     2.496211947351    99.12039791   295.23575763

---------------------------
INTERNAL COORDINATES (A.U.)
---------------------------
 C      0   0   0     0.000000000000     0.00000000     0.00000000
 C      1   0   0     2.883148903024     0.00000000     0.00000000
 C      2   1   0     2.882390937465   112.84764788     0.00000000
 C      2   1   3     2.849975942698   111.91183111   127.43230084
 I      4   2   1     4.634226565911   103.75752220   114.55319752
 H      1   2   3     2.078252016841   109.88194630   297.33042644
 H      1   2   3     2.080126628903   110.44227904    57.89525944
 H      1   2   3     2.081604158093   111.00111978   177.66619205
 H      2   1   3     2.082192446182   107.32429528   242.34038482
 H      3   2   1     2.082219287919   111.00316276   184.74765226
 H      3   2   1     2.080310133012   110.70172314   304.35250251
 H      3   2   1     2.077630742382   109.65797099    64.87814320
 H      4   2   1     2.050628174359   120.78411360   210.23092517
 H      4   2   1     2.049533164170   120.96358473    19.28970701
 Cl     4   2   1     4.717156952716    99.12039791   295.23575763

---------------------
BASIS SET INFORMATION
---------------------
There are 4 groups of distinct atoms

 Group   1 Type C   : 7s4p1d contracted to 3s2p1d pattern {511/31/1}
 Group   2 Type I   : 10s7p6d contracted to 4s4p2d pattern {6211/4111/51}
 Group   3 Type H   : 4s1p contracted to 2s1p pattern {31/1}
 Group   4 Type Cl  : 10s7p1d contracted to 4s3p1d pattern {5311/511/1}

Atom   0C    basis set group =>   1
Atom   1C    basis set group =>   1
Atom   2C    basis set group =>   1
Atom   3C    basis set group =>   1
Atom   4I    basis set group =>   2
Atom   5H    basis set group =>   3
Atom   6H    basis set group =>   3
Atom   7H    basis set group =>   3
Atom   8H    basis set group =>   3
Atom   9H    basis set group =>   3
Atom  10H    basis set group =>   3
Atom  11H    basis set group =>   3
Atom  12H    basis set group =>   3
Atom  13H    basis set group =>   3
Atom  14Cl   basis set group =>   4
---------------------------------
AUXILIARY/J BASIS SET INFORMATION
---------------------------------
There are 4 groups of distinct atoms

 Group   1 Type C   : 12s5p4d2f1g contracted to 6s4p3d1f1g pattern {711111/2111/211/2/1}
 Group   2 Type I   : 11s5p5d3f1g contracted to 8s4p3d2f1g pattern {41111111/2111/311/21/1}
 Group   3 Type H   : 5s2p1d contracted to 3s1p1d pattern {311/2/1}
 Group   4 Type Cl  : 14s5p5d2f1g contracted to 8s4p3d1f1g pattern {71111111/2111/311/2/1}

Atom   0C    basis set group =>   1
Atom   1C    basis set group =>   1
Atom   2C    basis set group =>   1
Atom   3C    basis set group =>   1
Atom   4I    basis set group =>   2
Atom   5H    basis set group =>   3
Atom   6H    basis set group =>   3
Atom   7H    basis set group =>   3
Atom   8H    basis set group =>   3
Atom   9H    basis set group =>   3
Atom  10H    basis set group =>   3
Atom  11H    basis set group =>   3
Atom  12H    basis set group =>   3
Atom  13H    basis set group =>   3
Atom  14Cl   basis set group =>   4
-------------------------
ECP PARAMETER INFORMATION
-------------------------

 Group 1, Type I  ECP Def2-ECP (replacing 28 core electrons, lmax=3)

Atom   4I    ECP group =>   1

[1631613345.793882] [comp0801:105159:0]            sys.c:618  UCX  ERROR shmget(size=2097152 flags=0xfb0) for mm_recv_desc failed: Operation not permitted, please check shared memory limits by 'ipcs -l'
[1631613345.796440] [comp0801:105161:0]            sys.c:618  UCX  ERROR shmget(size=2097152 flags=0xfb0) for mm_recv_desc failed: Operation not permitted, please check shared memory limits by 'ipcs -l'
[1631613345.798318] [comp0801:105162:0]            sys.c:618  UCX  ERROR shmget(size=2097152 flags=0xfb0) for mm_recv_desc failed: Operation not permitted, please check shared memory limits by 'ipcs -l'
[1631613345.798481] [comp0801:105160:0]            sys.c:618  UCX  ERROR shmget(size=2097152 flags=0xfb0) for mm_recv_desc failed: Operation not permitted, please check shared memory limits by 'ipcs -l'
[1631613345.806131] [comp0801:105159:0]            sys.c:618  UCX  ERROR shmget(size=2097152 flags=0xb80) for ucp_am_bufs failed: Operation not permitted, please check shared memory limits by 'ipcs -l'
[1631613345.806146] [comp0801:105161:0]            sys.c:618  UCX  ERROR shmget(size=2097152 flags=0xb80) for ucp_am_bufs failed: Operation not permitted, please check shared memory limits by 'ipcs -l'
[1631613345.810658] [comp0801:105162:0]            sys.c:618  UCX  ERROR shmget(size=2097152 flags=0xb80) for ucp_am_bufs failed: Operation not permitted, please check shared memory limits by 'ipcs -l'
[1631613345.810823] [comp0801:105160:0]            sys.c:618  UCX  ERROR shmget(size=2097152 flags=0xb80) for ucp_am_bufs failed: Operation not permitted, please check shared memory limits by 'ipcs -l'


           ************************************************************
           *        Program running with 4 parallel MPI-processes     *
           *              working on a common directory               *
           ************************************************************
------------------------------------------------------------------------------
                           ORCA GTO INTEGRAL CALCULATION
                           -- RI-GTO INTEGRALS CHOSEN --
------------------------------------------------------------------------------

                         BASIS SET STATISTICS AND STARTUP INFO

Gaussian basis set:
 # of primitive gaussian shells          ...  134
 # of primitive gaussian functions       ...  256
 # of contracted shells                  ...   69
 # of contracted basis functions         ...  145
 Highest angular momentum                ...    2
 Maximum contraction depth               ...    6
Auxiliary gaussian basis set:
 # of primitive gaussian shells          ...  220
 # of primitive gaussian functions       ...  582
 # of contracted shells                  ...  140
 # of contracted aux-basis functions     ...  404
 Highest angular momentum                ...    4
 Maximum contraction depth               ...    7
Ratio of auxiliary to basis functions    ...  2.79
Integral package used                  ... LIBINT
 One Electron integrals                  
   ECP integrals                         ... done
 Ordering auxiliary basis shells         ... done
 Integral threshhold             Thresh  ...  2.500e-11
 Primitive cut-off               TCut    ...  2.500e-12
 Pre-screening matrix                    ... done
 Shell pair data                         ... 
 Ordering of the shell pairs             ... done (   0.000 sec) 2300 of 2415 pairs
 Determination of significant pairs      ... done (   0.000 sec)
 Creation of shell pair data             ... done (   0.000 sec)
 Storage of shell pair data              ... done (   0.001 sec)
 Shell pair data done in (   0.001 sec)
 Computing two index integrals           ... done
 Cholesky decomposition of the V-matrix  ... done


Timings:
 Total evaluation time                   ...   0.286 sec (  0.005 min)
 One electron matrix time                ...   0.134 sec (  0.002 min) = 46.8%
 Schwartz matrix evaluation time         ...   0.113 sec (  0.002 min) = 39.4%
 Two index repulsion integral time       ...   0.003 sec (  0.000 min) =  1.1%
 Cholesky decomposition of V             ...   0.002 sec (  0.000 min) =  0.7%
 Three index repulsion integral time     ...   0.000 sec (  0.000 min) =  0.0%

[1631613347.033373] [comp0801:105182:0]            sys.c:618  UCX  ERROR shmget(size=2097152 flags=0xfb0) for mm_recv_desc failed: Operation not permitted, please check shared memory limits by 'ipcs -l'
[1631613347.036223] [comp0801:105180:0]            sys.c:618  UCX  ERROR shmget(size=2097152 flags=0xfb0) for mm_recv_desc failed: Operation not permitted, please check shared memory limits by 'ipcs -l'
[1631613347.037370] [comp0801:105183:0]            sys.c:618  UCX  ERROR shmget(size=2097152 flags=0xfb0) for mm_recv_desc failed: Operation not permitted, please check shared memory limits by 'ipcs -l'
[1631613347.038205] [comp0801:105181:0]            sys.c:618  UCX  ERROR shmget(size=2097152 flags=0xfb0) for mm_recv_desc failed: Operation not permitted, please check shared memory limits by 'ipcs -l'
[1631613347.046091] [comp0801:105182:0]            sys.c:618  UCX  ERROR shmget(size=2097152 flags=0xb80) for ucp_am_bufs failed: Operation not permitted, please check shared memory limits by 'ipcs -l'
[1631613347.046090] [comp0801:105180:0]            sys.c:618  UCX  ERROR shmget(size=2097152 flags=0xb80) for ucp_am_bufs failed: Operation not permitted, please check shared memory limits by 'ipcs -l'
[1631613347.046881] [comp0801:105183:0]            sys.c:618  UCX  ERROR shmget(size=2097152 flags=0xb80) for ucp_am_bufs failed: Operation not permitted, please check shared memory limits by 'ipcs -l'


           ************************************************************
           *        Program running with 4 parallel MPI-processes     *
           *              working on a common directory               *
           ************************************************************
[1631613347.050630] [comp0801:105181:0]            sys.c:618  UCX  ERROR shmget(size=2097152 flags=0xb80) for ucp_am_bufs failed: Operation not permitted, please check shared memory limits by 'ipcs -l'
-------------------------------------------------------------------------------
                                 ORCA SCF
-------------------------------------------------------------------------------

------------
SCF SETTINGS
------------
Hamiltonian:
 Density Functional     Method          .... DFT(GTOs)
 Exchange Functional    Exchange        .... PBE
   PBE kappa parameter   XKappa         ....  0.804000
   PBE mue parameter    XMuePBE         ....  0.219520
 Correlation Functional Correlation     .... PBE
   PBE beta parameter  CBetaPBE         ....  0.066725
 LDA part of GGA corr.  LDAOpt          .... PW91-LDA
 Gradients option       PostSCFGGA      .... off
 Hybrid DFT is turned on
   Fraction HF Exchange ScalHFX         ....  0.250000
   Scaling of DF-GGA-X  ScalDFX         ....  0.750000
   Scaling of DF-GGA-C  ScalDFC         ....  1.000000
   Scaling of DF-LDA-C  ScalLDAC        ....  1.000000
   Perturbative correction              ....  0.000000
   Density functional embedding theory  .... OFF
   NL short-range parameter             ....  6.900000
 RI-approximation to the Coulomb term is turned on
   Number of auxiliary basis functions  .... 404
   RIJ-COSX (HFX calculated with COS-X)).... on


General Settings:
 Integral files         IntName         .... manual_357_redo_3
 Hartree-Fock type      HFTyp           .... RHF
 Total Charge           Charge          ....   -1
 Multiplicity           Mult            ....    1
 Number of Electrons    NEL             ....   76
 Basis Dimension        Dim             ....  145
 Nuclear Repulsion      ENuc            ....    396.1762193133 Eh

Convergence Acceleration:
 DIIS                   CNVDIIS         .... on
   Start iteration      DIISMaxIt       ....    12
   Startup error        DIISStart       ....  0.200000
   # of expansion vecs  DIISMaxEq       ....     5
   Bias factor          DIISBfac        ....   1.050
   Max. coefficient     DIISMaxC        ....  10.000
 Newton-Raphson         CNVNR           .... off
 SOSCF                  CNVSOSCF        .... on
   Start iteration      SOSCFMaxIt      ....   150
   Startup grad/error   SOSCFStart      ....  0.003300
 Level Shifting         CNVShift        .... on
   Level shift para.    LevelShift      ....    0.2500
   Turn off err/grad.   ShiftErr        ....    0.0010
 Zerner damping         CNVZerner       .... off
 Static damping         CNVDamp         .... on
   Fraction old density DampFac         ....    0.7000
   Max. Damping (<1)    DampMax         ....    0.9800
   Min. Damping (>=0)   DampMin         ....    0.0000
   Turn off err/grad.   DampErr         ....    0.1000
 Fernandez-Rico         CNVRico         .... off

SCF Procedure:
 Maximum # iterations   MaxIter         ....   250
 SCF integral mode      SCFMode         .... Direct
   Integral package                     .... LIBINT
 Reset frequency        DirectResetFreq ....    20
 Integral Threshold     Thresh          ....  2.500e-11 Eh
 Primitive CutOff       TCut            ....  2.500e-12 Eh

Convergence Tolerance:
 Convergence Check Mode ConvCheckMode   .... Total+1el-Energy
 Convergence forced     ConvForced      .... 0
 Energy Change          TolE            ....  1.000e-08 Eh
 1-El. energy change                    ....  1.000e-05 Eh
 Orbital Gradient       TolG            ....  1.000e-05
 Orbital Rotation angle TolX            ....  1.000e-05
 DIIS Error             TolErr          ....  5.000e-07


Diagonalization of the overlap matrix:
Smallest eigenvalue                        ... 1.955e-03
Time for diagonalization                   ...    0.007 sec
Threshold for overlap eigenvalues          ... 1.000e-08
Number of eigenvalues below threshold      ... 0
Time for construction of square roots      ...    0.002 sec
Total time needed                          ...    0.009 sec

-------------------
DFT GRID GENERATION
-------------------

General Integration Accuracy     IntAcc      ...  4.340
Radial Grid Type                 RadialGrid  ... Gauss-Chebyshev
Angular Grid (max. acc.)         AngularGrid ... Lebedev-110
Angular grid pruning method      GridPruning ... 3 (G Style)
Weight generation scheme         WeightScheme... Becke
Basis function cutoff            BFCut       ...    1.0000e-11
Integration weight cutoff        WCut        ...    1.0000e-14
Grids for H and He will be reduced by one unit

# of grid points (after initial pruning)     ...  18896 (   0.0 sec)
# of grid points (after weights+screening)   ...  17594 (   0.0 sec)
nearest neighbour list constructed           ...    0.0 sec
Grid point re-assignment to atoms done       ...    0.0 sec
Grid point division into batches done        ...    0.0 sec
Reduced shell lists constructed in    0.1 sec

Total number of grid points                  ...    17594
Total number of batches                      ...      282
Average number of points per batch           ...       62
Average number of grid points per atom       ...     1173
Average number of shells per batch           ...    54.69 (79.27%)
Average number of basis functions per batch  ...   114.92 (79.25%)
Average number of large shells per batch     ...    45.68 (83.52%)
Average number of large basis fcns per batch ...    93.26 (81.16%)
Maximum spatial batch extension              ...  18.04, 16.14, 17.45 au
Average spatial batch extension              ...   0.67,  0.69,  0.66 au

Time for grid setup =    0.101 sec

------------------------------
INITIAL GUESS: MODEL POTENTIAL
------------------------------
Loading Hartree-Fock densities                     ... done
  calling /usr/local/orca_4_2_1_linux_x86-64/orca manual_357_redo_3_atom53.inp > manual_357_redo_3_atom53.out in order to generate an atomic fitting density for atom 4 (I  with ECP) on-the-fly... 
    atom 4 (I ), assumed electronic state with S=2: 1s2 2s2 2p6 3s2 3p6 4s2 3d10 4p6 5s2 4d10 5p5           ... done
Calculating cut-offs                               ... done
Setting up the integral package                    ... done
Initializing the effective Hamiltonian             ... done
Starting the Coulomb interaction                   ... done (   0.0 sec)
Reading the grid                                   ... done
Mapping shells                                     ... done
Starting the XC term evaluation                    ... done (   0.0 sec)
  promolecular density results
     # of electrons  =    103.003999954
     EX              =   -223.558375695
     EC              =     -4.590984282
     EX+EC           =   -228.149359977
Transforming the Hamiltonian                       ... done (   0.0 sec)
Diagonalizing the Hamiltonian                      ... done (   0.0 sec)
Back transforming the eigenvectors                 ... done (   0.0 sec)
Now organizing SCF variables                       ... done
                      ------------------
                      INITIAL GUESS DONE (   1.7 sec)
                      ------------------
--------------------
COSX GRID GENERATION
--------------------

General Integration Accuracy     IntAcc      ...  3.340
Radial Grid Type                 RadialGrid  ... Gauss-Chebyshev
Angular Grid (max. acc.)         AngularGrid ... Lebedev-50
Angular grid pruning method      GridPruning ... 3 (G Style)
Weight generation scheme         WeightScheme... Becke
Basis function cutoff            BFCut       ...    1.0000e-11
Integration weight cutoff        WCut        ...    1.0000e-14
Grids for H and He will be reduced by one unit

# of grid points (after initial pruning)     ...   7136 (   0.0 sec)
# of grid points (after weights+screening)   ...   6651 (   0.0 sec)
nearest neighbour list constructed           ...    0.0 sec
Grid point re-assignment to atoms done       ...    0.0 sec
Grid point division into batches done        ...    0.0 sec
Reduced shell lists constructed in    0.0 sec

Total number of grid points                  ...     6651
Total number of batches                      ...      112
Average number of points per batch           ...       59
Average number of grid points per atom       ...      443
Average number of shells per batch           ...    55.55 (80.51%)
Average number of basis functions per batch  ...   116.79 (80.55%)
Average number of large shells per batch     ...    47.21 (84.98%)
Average number of large basis fcns per batch ...    96.72 (82.82%)
Maximum spatial batch extension              ...  14.66, 15.57, 16.39 au
Average spatial batch extension              ...   0.90,  0.85,  0.88 au

Overlap Fitting                  UseSFitting ... on
Constructing numerical overlap ... done (      0.0 sec)
Inverting numerical overlap    ... done (      0.0 sec)
Obtaining analytic overlap     ... done (      0.0 sec)
Final contraction and storage  ... done (      0.0 sec)


General Integration Accuracy     IntAcc      ...  3.670
Radial Grid Type                 RadialGrid  ... Gauss-Chebyshev
Angular Grid (max. acc.)         AngularGrid ... Lebedev-50
Angular grid pruning method      GridPruning ... 3 (G Style)
Weight generation scheme         WeightScheme... Becke
Basis function cutoff            BFCut       ...    1.0000e-11
Integration weight cutoff        WCut        ...    1.0000e-14
Grids for H and He will be reduced by one unit

# of grid points (after initial pruning)     ...   8988 (   0.0 sec)
# of grid points (after weights+screening)   ...   8352 (   0.0 sec)
nearest neighbour list constructed           ...    0.0 sec
Grid point re-assignment to atoms done       ...    0.0 sec
Grid point division into batches done        ...    0.0 sec
Reduced shell lists constructed in    0.0 sec

Total number of grid points                  ...     8352
Total number of batches                      ...      137
Average number of points per batch           ...       60
Average number of grid points per atom       ...      557
Average number of shells per batch           ...    55.78 (80.84%)
Average number of basis functions per batch  ...   117.56 (81.07%)
Average number of large shells per batch     ...    47.28 (84.76%)
Average number of large basis fcns per batch ...    96.50 (82.09%)
Maximum spatial batch extension              ...  15.28, 16.02, 21.21 au
Average spatial batch extension              ...   0.79,  0.78,  0.87 au

Overlap Fitting                  UseSFitting ... on
Constructing numerical overlap ... done (      0.0 sec)
Inverting numerical overlap    ... done (      0.0 sec)
Obtaining analytic overlap     ... done (      0.0 sec)
Final contraction and storage  ... done (      0.0 sec)


General Integration Accuracy     IntAcc      ...  4.010
Radial Grid Type                 RadialGrid  ... Gauss-Chebyshev
Angular Grid (max. acc.)         AngularGrid ... Lebedev-110
Angular grid pruning method      GridPruning ... 3 (G Style)
Weight generation scheme         WeightScheme... Becke
Basis function cutoff            BFCut       ...    1.0000e-11
Integration weight cutoff        WCut        ...    1.0000e-14
Grids for H and He will be reduced by one unit

# of grid points (after initial pruning)     ...  16490 (   0.0 sec)
# of grid points (after weights+screening)   ...  15389 (   0.0 sec)
nearest neighbour list constructed           ...    0.0 sec
Grid point re-assignment to atoms done       ...    0.0 sec
Grid point division into batches done        ...    0.0 sec
Reduced shell lists constructed in    0.0 sec

Total number of grid points                  ...    15389
Total number of batches                      ...      249
Average number of points per batch           ...       61
Average number of grid points per atom       ...     1026
Average number of shells per batch           ...    54.86 (79.51%)
Average number of basis functions per batch  ...   115.20 (79.45%)
Average number of large shells per batch     ...    46.03 (83.91%)
Average number of large basis fcns per batch ...    93.84 (81.46%)
Maximum spatial batch extension              ...  16.97, 15.37, 17.14 au
Average spatial batch extension              ...   0.70,  0.69,  0.69 au

Overlap Fitting                  UseSFitting ... on
Constructing numerical overlap ... done (      0.0 sec)
Inverting numerical overlap    ... done (      0.0 sec)
Obtaining analytic overlap     ... done (      0.0 sec)
Final contraction and storage  ... done (      0.0 sec)

Time for X-Grid setup             =    0.180 sec

--------------------
CPCM SOLVATION MODEL
--------------------
CPCM parameters:
  Epsilon                                         ...      20.7000
  Refrac                                          ...       1.3590
  Rsolv                                           ...       1.3000
  Surface type                                    ...    GEPOL SES
  Epsilon function type                           ...         CPCM
Radii:
 Radius for C  used is    3.7795 Bohr (=   2.0000 Ang.)
 Radius for I  used is    4.3842 Bohr (=   2.3200 Ang.)
 Radius for H  used is    2.4566 Bohr (=   1.3000 Ang.)
 Radius for Cl used is    3.8739 Bohr (=   2.0500 Ang.)
Calculating surface                               ...        done! (  0.0s)
GEPOL surface points                              ...          585
GEPOL Volume                                      ...    1148.2772
GEPOL Surface-area                                ...     627.0886
Calculating surface distance matrix               ...        done! (  0.0s)
Performing Cholesky decomposition & store         ...        done! (  0.0s)
Overall time for CPCM initialization              ...                 0.1s
--------------
SCF ITERATIONS
--------------
ITER       Energy         Delta-E        Max-DP      RMS-DP      [F,P]     Damp
               ***  Starting incremental Fock matrix formation  ***
  0   -888.6406325258   0.000000000000 2.39952432  0.05162574  1.0349126 0.7000
  1   -897.6709019601  -9.030269434273 1.23627303  0.02995268  0.6725267 0.7000
  2   -902.8026206927  -5.131718732629 0.99381394  0.01766459  0.4448693 0.7000
  3   -906.5509536328  -3.748332940037 0.83580460  0.01321901  0.2914816 0.7000
  4   -909.1610679191  -2.610114286312 0.62371786  0.00972847  0.2126327 0.7000
                               ***Turning on DIIS***
  5   -910.9878250785  -1.826757159408 0.44790718  0.00710036  0.1645509 0.7000
  6   -912.2713049590  -1.283479880489 0.31927923  0.00530688  0.1301373 0.7000
  7   -913.1734460129  -0.902141053875 0.75566443  0.01268200  0.0899911 0.0000
  8   -915.2938298843  -2.120383871418 0.01174425  0.00041345  0.0085076 0.0000
                      *** Initiating the SOSCF procedure ***
                           *** Shutting down DIIS ***
                      *** Re-Reading the Fockian *** 
                      *** Removing any level shift *** 
ITER      Energy       Delta-E        Grad      Rot      Max-DP    RMS-DP
  9   -915.29430347  -0.0004735900  0.002299  0.002299  0.014695  0.000269
               *** Restarting incremental Fock matrix formation ***
 10   -915.29446121  -0.0001577362  0.001911  0.009861  0.011455  0.000225
 11   -915.29451636  -0.0000551469  0.000526  0.001858  0.006309  0.000143
 12   -915.29452198  -0.0000056251  0.000462  0.001357  0.001814  0.000055
 13   -915.29452783  -0.0000058469  0.000136  0.000482  0.001185  0.000024
 14   -915.29452783  -0.0000000043  0.000108  0.000252  0.000648  0.000014
 15   -915.29452821  -0.0000003725  0.000003  0.000008  0.000030  0.000001
 16   -915.29452821  -0.0000000001  0.000003  0.000002  0.000016  0.000000
                  ***Gradient check signals convergence***
              ***Rediagonalizing the Fockian in SOSCF/NRSCF***

               *****************************************************
               *                     SUCCESS                       *
               *           SCF CONVERGED AFTER  17 CYCLES          *
               *****************************************************

Setting up the final grid:

General Integration Accuracy     IntAcc      ...  4.670
Radial Grid Type                 RadialGrid  ... Gauss-Chebyshev
Angular Grid (max. acc.)         AngularGrid ... Lebedev-302
Angular grid pruning method      GridPruning ... 3 (G Style)
Weight generation scheme         WeightScheme... Becke
Basis function cutoff            BFCut       ...    1.0000e-11
Integration weight cutoff        WCut        ...    1.0000e-14
Grids for H and He will be reduced by one unit

# of grid points (after initial pruning)     ...  72874 (   0.0 sec)
# of grid points (after weights+screening)   ...  66986 (   0.0 sec)
nearest neighbour list constructed           ...    0.0 sec
Grid point re-assignment to atoms done       ...    0.0 sec
Grid point division into batches done        ...    0.2 sec
Reduced shell lists constructed in    0.3 sec

Total number of grid points                  ...    66986
Total number of batches                      ...     1054
Average number of points per batch           ...       63
Average number of grid points per atom       ...     4466
Average number of shells per batch           ...    51.86 (75.15%)
Average number of basis functions per batch  ...   108.51 (74.83%)
Average number of large shells per batch     ...    42.27 (81.51%)
Average number of large basis fcns per batch ...    85.51 (78.80%)
Maximum spatial batch extension              ...  23.93, 22.44, 24.26 au
Average spatial batch extension              ...   0.54,  0.54,  0.54 au

Final grid set up in    0.4 sec
Final integration                            ... done (   0.1 sec)
Change in XC energy                          ...     0.000491624
Integrated number of electrons               ...    76.000197905
Previous integrated no of electrons          ...    76.005018105
Old exchange energy                            =    -18.210003790 Eh
New exchange energy                            =    -18.209634835 Eh
Exchange energy change after final integration =      0.000368955 Eh
Total energy after final integration           =   -915.293667625 Eh
Final COS-X integration done in                =     0.874 sec

----------------
TOTAL SCF ENERGY
----------------

Total Energy       :         -915.29366763 Eh          -24906.40691 eV

Components:
Nuclear Repulsion  :          396.17621931 Eh           10780.50300 eV
Electronic Energy  :        -1311.46988694 Eh          -35686.90991 eV
One Electron Energy:        -2167.39671821 Eh          -58977.86308 eV
Two Electron Energy:          855.92683127 Eh           23290.95317 eV
CPCM Dielectric    :           -0.08205350 Eh              -2.23279 eV

Virial components:
Potential Energy   :        -1643.70200205 Eh          -44727.40537 eV
Kinetic Energy     :          728.40833442 Eh           19820.99846 eV
Virial Ratio       :            2.25656671


DFT components:
N(Alpha)           :       38.000098952685 electrons
N(Beta)            :       38.000098952685 electrons
N(Total)           :       76.000197905370 electrons
E(X)               :      -54.315785738907 Eh       
E(C)               :       -2.915415559004 Eh       
E(XC)              :      -57.231201297911 Eh       
DFET-embed. en.    :        0.000000000000 Eh       
CPCM Solvation Model Properties:
Surface-charge          :            0.96942648
Charge-correction       :           -0.00406562 Eh              -0.11063 eV
Free-energy (cav+disp)  :            0.00399797 Eh               0.10879 eV
Corrected G(solv)       :         -915.29373527 Eh          -24906.40875 eV

---------------
SCF CONVERGENCE
---------------

  Last Energy change         ...    2.1371e-09  Tolerance :   1.0000e-08
  Last MAX-Density change    ...    3.1086e-15  Tolerance :   1.0000e-07
  Last RMS-Density change    ...    7.3515e-17  Tolerance :   5.0000e-09
  Last Orbital Gradient      ...    4.7651e-07  Tolerance :   1.0000e-05
  Last Orbital Rotation      ...    5.8788e-07  Tolerance :   1.0000e-05

             **** THE GBW FILE WAS UPDATED (manual_357_redo_3.gbw) ****
             **** DENSITY FILE WAS UPDATED (manual_357_redo_3.scfp) ****
             **** ENERGY FILE WAS UPDATED (manual_357_redo_3.en.tmp) ****
             **** THE GBW FILE WAS UPDATED (manual_357_redo_3.gbw) ****
             **** DENSITY FILE WAS UPDATED (manual_357_redo_3.scfp) ****
----------------
ORBITAL ENERGIES
----------------

  NO   OCC          E(Eh)            E(eV) 
   0   2.0000    -101.554974     -2763.4513 
   1   2.0000     -10.277996      -279.6785 
   2   2.0000     -10.231072      -278.4016 
   3   2.0000     -10.208746      -277.7941 
   4   2.0000     -10.207988      -277.7735 
   5   2.0000      -9.402481      -255.8545 
   6   2.0000      -7.139684      -194.2807 
   7   2.0000      -7.137181      -194.2126 
   8   2.0000      -7.137132      -194.2112 
   9   2.0000      -6.841027      -186.1538 
  10   2.0000      -4.853283      -132.0645 
  11   2.0000      -4.846344      -131.8757 
  12   2.0000      -4.846178      -131.8712 
  13   2.0000      -1.880144       -51.1613 
  14   2.0000      -1.878352       -51.1126 
  15   2.0000      -1.878127       -51.1064 
  16   2.0000      -1.872151       -50.9438 
  17   2.0000      -1.872129       -50.9432 
  18   2.0000      -0.819422       -22.2976 
  19   2.0000      -0.712174       -19.3793 
  20   2.0000      -0.692345       -18.8397 
  21   2.0000      -0.683055       -18.5869 
  22   2.0000      -0.629357       -17.1257 
  23   2.0000      -0.561137       -15.2693 
  24   2.0000      -0.461786       -12.5658 
  25   2.0000      -0.457996       -12.4627 
  26   2.0000      -0.440194       -11.9783 
  27   2.0000      -0.384794       -10.4708 
  28   2.0000      -0.372393       -10.1333 
  29   2.0000      -0.358858        -9.7650 
  30   2.0000      -0.338920        -9.2225 
  31   2.0000      -0.337105        -9.1731 
  32   2.0000      -0.286606        -7.7989 
  33   2.0000      -0.240976        -6.5573 
  34   2.0000      -0.237699        -6.4681 
  35   2.0000      -0.234012        -6.3678 
  36   2.0000      -0.232535        -6.3276 
  37   2.0000      -0.214900        -5.8477 
  38   0.0000      -0.020963        -0.5704 
  39   0.0000       0.086054         2.3416 
  40   0.0000       0.125780         3.4226 
  41   0.0000       0.133261         3.6262 
  42   0.0000       0.144848         3.9415 
  43   0.0000       0.146855         3.9961 
  44   0.0000       0.151088         4.1113 
  45   0.0000       0.181680         4.9438 
  46   0.0000       0.193356         5.2615 
  47   0.0000       0.197628         5.3777 
  48   0.0000       0.217219         5.9108 
  49   0.0000       0.260614         7.0917 
  50   0.0000       0.276434         7.5222 
  51   0.0000       0.341669         9.2973 
  52   0.0000       0.398664        10.8482 
  53   0.0000       0.400323        10.8934 
  54   0.0000       0.418438        11.3863 
  55   0.0000       0.420444        11.4409 
  56   0.0000       0.427509        11.6331 
  57   0.0000       0.450963        12.2713 
  58   0.0000       0.456041        12.4095 
  59   0.0000       0.479235        13.0406 
  60   0.0000       0.483896        13.1675 
  61   0.0000       0.492929        13.4133 
  62   0.0000       0.508165        13.8279 
  63   0.0000       0.539030        14.6678 
  64   0.0000       0.583235        15.8706 
  65   0.0000       0.621968        16.9246 
  66   0.0000       0.643686        17.5156 
  67   0.0000       0.653194        17.7743 
  68   0.0000       0.663219        18.0471 
  69   0.0000       0.679535        18.4911 
  70   0.0000       0.685203        18.6453 
  71   0.0000       0.690429        18.7875 
  72   0.0000       0.696580        18.9549 
  73   0.0000       0.710682        19.3386 
  74   0.0000       0.723933        19.6992 
  75   0.0000       0.727454        19.7950 
  76   0.0000       0.731978        19.9181 
  77   0.0000       0.745640        20.2899 
  78   0.0000       0.746487        20.3129 
  79   0.0000       0.754199        20.5228 
  80   0.0000       0.788486        21.4558 
  81   0.0000       0.836368        22.7587 
  82   0.0000       0.866678        23.5835 
  83   0.0000       0.904367        24.6091 
  84   0.0000       0.914574        24.8868 
  85   0.0000       0.920938        25.0600 
  86   0.0000       0.963691        26.2234 
  87   0.0000       1.005207        27.3531 
  88   0.0000       1.016046        27.6480 
  89   0.0000       1.062421        28.9099 
  90   0.0000       1.072542        29.1853 
  91   0.0000       1.095427        29.8081 
  92   0.0000       1.177314        32.0363 
  93   0.0000       1.213705        33.0266 
  94   0.0000       1.218051        33.1449 
  95   0.0000       1.300712        35.3942 
  96   0.0000       1.338951        36.4347 
  97   0.0000       1.379460        37.5370 
  98   0.0000       1.473799        40.1041 
  99   0.0000       1.535413        41.7807 
 100   0.0000       1.561097        42.4796 
 101   0.0000       1.566066        42.6148 
 102   0.0000       1.583262        43.0828 
 103   0.0000       1.717385        46.7324 
 104   0.0000       1.719601        46.7927 
 105   0.0000       1.770785        48.1855 
 106   0.0000       1.801790        49.0292 
 107   0.0000       1.823019        49.6069 
 108   0.0000       1.824202        49.6391 
 109   0.0000       1.837728        50.0071 
 110   0.0000       1.846455        50.2446 
 111   0.0000       1.864801        50.7438 
 112   0.0000       1.881762        51.2053 
 113   0.0000       1.916077        52.1391 
 114   0.0000       1.942346        52.8539 
 115   0.0000       1.977087        53.7993 
 116   0.0000       2.000962        54.4489 
 117   0.0000       2.030287        55.2469 
 118   0.0000       2.102764        57.2191 
 119   0.0000       2.148923        58.4752 
 120   0.0000       2.218567        60.3703 
 121   0.0000       2.249838        61.2212 
 122   0.0000       2.265712        61.6532 
 123   0.0000       2.312781        62.9340 
 124   0.0000       2.366443        64.3942 
 125   0.0000       2.438715        66.3608 
 126   0.0000       2.456406        66.8422 
 127   0.0000       2.498692        67.9929 
 128   0.0000       2.579640        70.1956 
 129   0.0000       2.586829        70.3912 
 130   0.0000       2.637752        71.7769 
 131   0.0000       2.691681        73.2444 
 132   0.0000       2.849576        77.5409 
 133   0.0000       2.851529        77.5940 
 134   0.0000       2.881777        78.4171 
 135   0.0000       2.949298        80.2545 
 136   0.0000       2.968824        80.7858 
 137   0.0000       2.978126        81.0389 
 138   0.0000       3.056970        83.1844 
 139   0.0000       3.112842        84.7047 
 140   0.0000       3.117711        84.8372 
 141   0.0000      18.679952       508.3073 
 142   0.0000      18.697939       508.7968 
 143   0.0000      18.945740       515.5398 
 144   0.0000      55.972803      1523.0974 

                    ********************************
                    * MULLIKEN POPULATION ANALYSIS *
                    ********************************

-----------------------
MULLIKEN ATOMIC CHARGES
-----------------------
   0 C :   -0.054767
   1 C :   -0.158786
   2 C :   -0.046624
   3 C :   -0.063221
   4 I :   -0.520180
   5 H :    0.024645
   6 H :    0.040902
   7 H :    0.041829
   8 H :    0.070267
   9 H :    0.038282
  10 H :    0.040227
  11 H :    0.022499
  12 H :    0.114958
  13 H :    0.115181
  14 Cl:   -0.665213
Sum of atomic charges:   -1.0000000

--------------------------------
MULLIKEN REDUCED ORBITAL CHARGES
--------------------------------
  0 C s       :     3.034216  s :     3.034216
      pz      :     1.028942  p :     2.993347
      px      :     0.955289
      py      :     1.009116
      dz2     :     0.004980  d :     0.027204
      dxz     :     0.002957
      dyz     :     0.007731
      dx2y2   :     0.003593
      dxy     :     0.007944
  1 C s       :     3.116712  s :     3.116712
      pz      :     1.033475  p :     2.996683
      px      :     0.975546
      py      :     0.987662
      dz2     :     0.009079  d :     0.045391
      dxz     :     0.006199
      dyz     :     0.010108
      dx2y2   :     0.007885
      dxy     :     0.012120
  2 C s       :     3.033207  s :     3.033207
      pz      :     0.999385  p :     2.986234
      px      :     1.006886
      py      :     0.979963
      dz2     :     0.007495  d :     0.027183
      dxz     :     0.002398
      dyz     :     0.006776
      dx2y2   :     0.002455
      dxy     :     0.008059
  3 C s       :     3.252550  s :     3.252550
      pz      :     0.764242  p :     2.780537
      px      :     1.012523
      py      :     1.003773
      dz2     :     0.006541  d :     0.030133
      dxz     :     0.003727
      dyz     :     0.004959
      dx2y2   :     0.008985
      dxy     :     0.005921
  4 I s       :     3.981537  s :     3.981537
      pz      :     3.583890  p :    11.515654
      px      :     3.956863
      py      :     3.974901
      dz2     :     2.010479  d :    10.022990
      dxz     :     2.005597
      dyz     :     2.005049
      dx2y2   :     2.000446
      dxy     :     2.001420
  5 H s       :     0.950402  s :     0.950402
      pz      :     0.012192  p :     0.024952
      px      :     0.004549
      py      :     0.008211
  6 H s       :     0.935422  s :     0.935422
      pz      :     0.005259  p :     0.023676
      px      :     0.008988
      py      :     0.009429
  7 H s       :     0.934534  s :     0.934534
      pz      :     0.010517  p :     0.023637
      px      :     0.004781
      py      :     0.008339
  8 H s       :     0.905845  s :     0.905845
      pz      :     0.012447  p :     0.023888
      px      :     0.004295
      py      :     0.007146
  9 H s       :     0.937970  s :     0.937970
      pz      :     0.004948  p :     0.023748
      px      :     0.012017
      py      :     0.006784
 10 H s       :     0.936033  s :     0.936033
      pz      :     0.004706  p :     0.023739
      px      :     0.009605
      py      :     0.009429
 11 H s       :     0.952356  s :     0.952356
      pz      :     0.011323  p :     0.025145
      px      :     0.005044
      py      :     0.008778
 12 H s       :     0.860035  s :     0.860035
      pz      :     0.006142  p :     0.025007
      px      :     0.014701
      py      :     0.004163
 13 H s       :     0.859711  s :     0.859711
      pz      :     0.005930  p :     0.025109
      px      :     0.004362
      py      :     0.014817
 14 Cls       :     5.985094  s :     5.985094
      pz      :     3.823710  p :    11.677174
      px      :     3.951423
      py      :     3.902041
      dz2     :     0.001269  d :     0.002945
      dxz     :     0.000306
      dyz     :     0.000920
      dx2y2   :     0.000283
      dxy     :     0.000167


                     *******************************
                     * LOEWDIN POPULATION ANALYSIS *
                     *******************************

----------------------
LOEWDIN ATOMIC CHARGES
----------------------
   0 C :   -0.069922
   1 C :   -0.078584
   2 C :   -0.069116
   3 C :   -0.006668
   4 I :   -0.384391
   5 H :    0.011083
   6 H :    0.027382
   7 H :    0.027785
   8 H :    0.027991
   9 H :    0.027264
  10 H :    0.027063
  11 H :    0.008844
  12 H :    0.022426
  13 H :    0.021339
  14 Cl:   -0.592497

-------------------------------
LOEWDIN REDUCED ORBITAL CHARGES
-------------------------------
  0 C s       :     2.846146  s :     2.846146
      pz      :     1.075413  p :     3.153148
      px      :     1.018063
      py      :     1.059672
      dz2     :     0.013443  d :     0.070628
      dxz     :     0.006714
      dyz     :     0.020062
      dx2y2   :     0.009344
      dxy     :     0.021066
  1 C s       :     2.844074  s :     2.844074
      pz      :     1.066185  p :     3.126944
      px      :     1.027098
      py      :     1.033661
      dz2     :     0.021429  d :     0.107565
      dxz     :     0.012479
      dyz     :     0.025652
      dx2y2   :     0.017305
      dxy     :     0.030700
  2 C s       :     2.846372  s :     2.846372
      pz      :     1.051593  p :     3.152059
      px      :     1.058153
      py      :     1.042313
      dz2     :     0.018154  d :     0.070685
      dxz     :     0.005910
      dyz     :     0.019150
      dx2y2   :     0.006204
      dxy     :     0.021267
  3 C s       :     2.977350  s :     2.977350
      pz      :     0.822686  p :     2.960630
      px      :     1.077004
      py      :     1.060939
      dz2     :     0.013357  d :     0.068688
      dxz     :     0.008349
      dyz     :     0.009239
      dx2y2   :     0.022156
      dxy     :     0.015587
  4 I s       :     3.919716  s :     3.919716
      pz      :     3.544167  p :    11.439176
      px      :     3.938518
      py      :     3.956490
      dz2     :     2.012316  d :    10.025499
      dxz     :     2.005972
      dyz     :     2.005228
      dx2y2   :     2.000456
      dxy     :     2.001527
  5 H s       :     0.917777  s :     0.917777
      pz      :     0.034650  p :     0.071140
      px      :     0.013812
      py      :     0.022677
  6 H s       :     0.906355  s :     0.906355
      pz      :     0.013407  p :     0.066262
      px      :     0.026593
      py      :     0.026262
  7 H s       :     0.906138  s :     0.906138
      pz      :     0.028944  p :     0.066077
      px      :     0.014308
      py      :     0.022825
  8 H s       :     0.899179  s :     0.899179
      pz      :     0.036915  p :     0.072830
      px      :     0.014095
      py      :     0.021820
  9 H s       :     0.906789  s :     0.906789
      pz      :     0.014319  p :     0.065948
      px      :     0.033089
      py      :     0.018540
 10 H s       :     0.906643  s :     0.906643
      pz      :     0.013848  p :     0.066294
      px      :     0.025940
      py      :     0.026506
 11 H s       :     0.919168  s :     0.919168
      pz      :     0.035032  p :     0.071988
      px      :     0.013010
      py      :     0.023947
 12 H s       :     0.898011  s :     0.898011
      pz      :     0.018403  p :     0.079562
      px      :     0.047570
      py      :     0.013590
 13 H s       :     0.898605  s :     0.898605
      pz      :     0.018578  p :     0.080056
      px      :     0.014233
      py      :     0.047244
 14 Cls       :     5.951506  s :     5.951506
      pz      :     3.790238  p :    11.638320
      px      :     3.952092
      py      :     3.895991
      dz2     :     0.001199  d :     0.002671
      dxz     :     0.000256
      dyz     :     0.000838
      dx2y2   :     0.000244
      dxy     :     0.000134


                      *****************************
                      * MAYER POPULATION ANALYSIS *
                      *****************************

  NA   - Mulliken gross atomic population
  ZA   - Total nuclear charge
  QA   - Mulliken gross atomic charge
  VA   - Mayer's total valence
  BVA  - Mayer's bonded valence
  FA   - Mayer's free valence

  ATOM       NA         ZA         QA         VA         BVA        FA
  0 C      6.0548     6.0000    -0.0548     3.9242     3.9242    -0.0000
  1 C      6.1588     6.0000    -0.1588     4.0641     4.0641    -0.0000
  2 C      6.0466     6.0000    -0.0466     3.9195     3.9195    -0.0000
  3 C      6.0632     6.0000    -0.0632     3.7923     3.7923     0.0000
  4 I     25.5202    25.0000    -0.5202     0.7608     0.7608    -0.0000
  5 H      0.9754     1.0000     0.0246     1.0502     1.0502    -0.0000
  6 H      0.9591     1.0000     0.0409     0.9868     0.9868    -0.0000
  7 H      0.9582     1.0000     0.0418     0.9847     0.9847     0.0000
  8 H      0.9297     1.0000     0.0703     0.9760     0.9760    -0.0000
  9 H      0.9617     1.0000     0.0383     0.9854     0.9854    -0.0000
 10 H      0.9598     1.0000     0.0402     0.9869     0.9869    -0.0000
 11 H      0.9775     1.0000     0.0225     1.0541     1.0541    -0.0000
 12 H      0.8850     1.0000     0.1150     0.9873     0.9873     0.0000
 13 H      0.8848     1.0000     0.1152     0.9886     0.9886    -0.0000
 14 Cl    17.6652    17.0000    -0.6652     0.6084     0.6084    -0.0000

  Mayer bond orders larger than 0.100000
B(  0-C ,  1-C ) :   1.0534 B(  0-C ,  5-H ) :   0.9569 B(  0-C ,  6-H ) :   0.9663 
B(  0-C ,  7-H ) :   0.9666 B(  1-C ,  2-C ) :   1.0529 B(  1-C ,  3-C ) :   1.0072 
B(  1-C ,  8-H ) :   0.9247 B(  2-C ,  9-H ) :   0.9667 B(  2-C , 10-H ) :   0.9675 
B(  2-C , 11-H ) :   0.9540 B(  3-C ,  4-I ) :   0.6473 B(  3-C , 12-H ) :   0.9483 
B(  3-C , 13-H ) :   0.9480 B(  3-C , 14-Cl) :   0.2631 B(  4-I , 14-Cl) :   0.1076 



------------------
HIRSHFELD ANALYSIS
------------------

Total integrated alpha density =     38.002509052
Total integrated beta density  =     38.002509052

  ATOM     CHARGE      SPIN    
   0 C   -0.083559    0.000000
   1 C   -0.007643    0.000000
   2 C   -0.082991    0.000000
   3 C    0.045154    0.000000
   4 I   -0.472514    0.000000
   5 H    0.007459    0.000000
   6 H    0.024117    0.000000
   7 H    0.023304    0.000000
   8 H    0.017457    0.000000
   9 H    0.023067    0.000000
  10 H    0.024799    0.000000
  11 H    0.005682    0.000000
  12 H    0.036690    0.000000
  13 H    0.035907    0.000000
  14 Cl  -0.601947    0.000000

  TOTAL  -1.005018    0.000000

-------
TIMINGS
-------

Total SCF time: 0 days 0 hours 0 min 17 sec 

Total time                  ....      17.553 sec
Sum of individual times     ....      17.241 sec  ( 98.2%)

Fock matrix formation       ....      14.932 sec  ( 85.1%)
  Split-RI-J                ....       2.214 sec  ( 14.8% of F)
  Chain of spheres X        ....       8.122 sec  ( 54.4% of F)
  COS-X 1 center corr.      ....       0.000 sec  (  0.0% of F)
  XC integration            ....       0.766 sec  (  5.1% of F)
    Basis function eval.    ....       0.301 sec  ( 39.3% of XC)
    Density eval.           ....       0.140 sec  ( 18.3% of XC)
    XC-Functional eval.     ....       0.059 sec  (  7.7% of XC)
    XC-Potential eval.      ....       0.210 sec  ( 27.4% of XC)
Diagonalization             ....       0.020 sec  (  0.1%)
Density matrix formation    ....       0.004 sec  (  0.0%)
Population analysis         ....       0.043 sec  (  0.2%)
Initial guess               ....       1.588 sec  (  9.0%)
Orbital Transformation      ....       0.000 sec  (  0.0%)
Orbital Orthonormalization  ....       0.000 sec  (  0.0%)
DIIS solution               ....       0.006 sec  (  0.0%)
SOSCF solution              ....       0.009 sec  (  0.1%)
Grid generation             ....       0.640 sec  (  3.6%)


-------------------------------------------------------------------------------
                          DFT DISPERSION CORRECTION                            
                                                                               
                              DFTD3 V3.1  Rev 1                                
                          USING Becke-Johnson damping                          
-------------------------------------------------------------------------------
The PBE0 functional is recognized
Active option DFTDOPT                   ...         4   

molecular C6(AA) [au] = 3751.629826 


            DFT-D V3
 parameters
 s6 scaling factor         :     1.0000 
 a1 scaling factor         :     0.4145 
 s8 scaling factor         :     1.2177 
 a2 scaling factor         :     4.8593 
 ad hoc parameters k1-k3   :    16.0000     1.3333    -4.0000 

 Edisp/kcal,au: -8.755633302867  -0.013952988331 
 E6   /kcal   :  -5.273472793 
 E8   /kcal   :  -3.482160510 
 % E8         :  39.770515614 

-------------------------   ----------------
Dispersion correction           -0.013952988
-------------------------   ----------------


-------------------------   --------------------
FINAL SINGLE POINT ENERGY      -915.307620613590
-------------------------   --------------------

[1631613365.622968] [comp0801:105219:0]            sys.c:618  UCX  ERROR shmget(size=2097152 flags=0xfb0) for mm_recv_desc failed: Operation not permitted, please check shared memory limits by 'ipcs -l'
[1631613365.625548] [comp0801:105221:0]            sys.c:618  UCX  ERROR shmget(size=2097152 flags=0xfb0) for mm_recv_desc failed: Operation not permitted, please check shared memory limits by 'ipcs -l'
[1631613365.627212] [comp0801:105220:0]            sys.c:618  UCX  ERROR shmget(size=2097152 flags=0xfb0) for mm_recv_desc failed: Operation not permitted, please check shared memory limits by 'ipcs -l'
[1631613365.627938] [comp0801:105222:0]            sys.c:618  UCX  ERROR shmget(size=2097152 flags=0xfb0) for mm_recv_desc failed: Operation not permitted, please check shared memory limits by 'ipcs -l'
[1631613365.635623] [comp0801:105219:0]            sys.c:618  UCX  ERROR shmget(size=2097152 flags=0xb80) for ucp_am_bufs failed: Operation not permitted, please check shared memory limits by 'ipcs -l'
[1631613365.636467] [comp0801:105220:0]            sys.c:618  UCX  ERROR shmget(size=2097152 flags=0xb80) for ucp_am_bufs failed: Operation not permitted, please check shared memory limits by 'ipcs -l'
[1631613365.637306] [comp0801:105221:0]            sys.c:618  UCX  ERROR shmget(size=2097152 flags=0xb80) for ucp_am_bufs failed: Operation not permitted, please check shared memory limits by 'ipcs -l'


           ************************************************************
           *        Program running with 4 parallel MPI-processes     *
           *              working on a common directory               *
           ************************************************************
------------------------------------------------------------------------------
                         ORCA SCF GRADIENT CALCULATION
------------------------------------------------------------------------------

Gradient of the Kohn-Sham DFT energy:
Kohn-Sham wavefunction type      ... RKS
Hartree-Fock exchange scaling    ...    0.250
Number of operators              ...    1
Number of atoms                  ...   15
Basis set dimensions             ...  145
Integral neglect threshold       ... 2.5e-11
Integral primitive cutoff        ... 2.5e-12

Nuclear repulsion gradient       ... done
One Electron Gradient            
  ECP gradient                   ... done
Pre-screening matrix             ... [1631613366.508639] [comp0801:105222:0]            sys.c:618  UCX  ERROR shmget(size=2097152 flags=0xb80) for ucp_am_bufs failed: Operation not permitted, please check shared memory limits by 'ipcs -l'
done
RI-J gradient                    ... done
COSX-gradient                    ... done
Exchange-correlation gradient    ... done
Dispersion correction            ... done

------------------
CARTESIAN GRADIENT
------------------

   1   C   :    0.000340246   -0.000106936    0.000565168
   2   C   :   -0.004205731   -0.003785502    0.001905877
   3   C   :   -0.000410668    0.000573656    0.000164341
   4   C   :    0.003641635    0.000400009   -0.007117995
   5   I   :    0.006038055   -0.002469615   -0.017391197
   6   H   :    0.000015543    0.000100056   -0.000065933
   7   H   :   -0.000144609   -0.000101057   -0.000016201
   8   H   :   -0.000117365    0.000053451   -0.000103507
   9   H   :   -0.002881455   -0.001401126    0.003147207
  10   H   :    0.000097761   -0.000129368   -0.000208393
  11   H   :   -0.000057596   -0.000153531   -0.000045485
  12   H   :    0.000155435    0.000010239   -0.000071936
  13   H   :   -0.002022128    0.002137404    0.005692292
  14   H   :   -0.000805517    0.001084875    0.006530404
  15   Cl  :   -0.000280856    0.002728118    0.005793316

Difference to translation invariance:
           :   -0.0006372508   -0.0010593251   -0.0012220417

Norm of the cartesian gradient     ...    0.0243455975
RMS gradient                       ...    0.0036292274
MAX gradient                       ...    0.0173911972

-------
TIMINGS
-------

Total SCF gradient time            ...        2.611 sec

One electron gradient       ....       0.247 sec  (  9.5%)
Prescreening matrices       ....       0.140 sec  (  5.3%)
RI-J Coulomb gradient       ....       0.247 sec  (  9.4%)
COSX gradient               ....       0.884 sec  ( 33.9%)
XC gradient                 ....       0.552 sec  ( 21.2%)
CPCM gradient               ....       0.246 sec  (  9.4%)
   A-Matrix (El+Nuc)        ....       0.010 sec  (  0.4%)
   Potential                ....       0.236 sec  (  9.0%)
[1631613369.193813] [comp0801:105242:0]            sys.c:618  UCX  ERROR shmget(size=2097152 flags=0xfb0) for mm_recv_desc failed: Operation not permitted, please check shared memory limits by 'ipcs -l'
[1631613369.198653] [comp0801:105240:0]            sys.c:618  UCX  ERROR shmget(size=2097152 flags=0xfb0) for mm_recv_desc failed: Operation not permitted, please check shared memory limits by 'ipcs -l'
[1631613369.199477] [comp0801:105243:0]            sys.c:618  UCX  ERROR shmget(size=2097152 flags=0xfb0) for mm_recv_desc failed: Operation not permitted, please check shared memory limits by 'ipcs -l'
[1631613369.199981] [comp0801:105241:0]            sys.c:618  UCX  ERROR shmget(size=2097152 flags=0xfb0) for mm_recv_desc failed: Operation not permitted, please check shared memory limits by 'ipcs -l'
[1631613369.207817] [comp0801:105243:0]            sys.c:618  UCX  ERROR shmget(size=2097152 flags=0xb80) for ucp_am_bufs failed: Operation not permitted, please check shared memory limits by 'ipcs -l'
[1631613369.207800] [comp0801:105241:0]            sys.c:618  UCX  ERROR shmget(size=2097152 flags=0xb80) for ucp_am_bufs failed: Operation not permitted, please check shared memory limits by 'ipcs -l'
[1631613369.208420] [comp0801:105242:0]            sys.c:618  UCX  ERROR shmget(size=2097152 flags=0xb80) for ucp_am_bufs failed: Operation not permitted, please check shared memory limits by 'ipcs -l'
[1631613369.208484] [comp0801:105240:0]            sys.c:618  UCX  ERROR shmget(size=2097152 flags=0xb80) for ucp_am_bufs failed: Operation not permitted, please check shared memory limits by 'ipcs -l'


           ************************************************************
           *        Program running with 4 parallel MPI-processes     *
           *              working on a common directory               *
           ************************************************************

-------------------------------------------------------------------------------
                               ORCA SCF HESSIAN
-------------------------------------------------------------------------------

Hessian of the Kohn-Sham DFT energy:
Kohn-Sham wavefunction type                      ... RKS
Hartree-Fock exchange scaling                    ...    0.250
Number of operators                              ...    1
Number of atoms                                  ...   15
Basis set dimensions                             ...  145
Integral neglect threshold                       ... 2.5e-11
Integral primitive cutoff                        ... 2.5e-12

Setting up DFT Hessian calculations              ... 
Electron density on the grid                     ... found on disk
Electron density on the final grid               ... found on disk
Building xc-kernel on the grid                   ... done   (      0.0 sec)
Building xc-kernel on the final grid             ... done   (      0.0 sec)
                                                     done   (      0.1 sec)

Nuclear repulsion Hessian                        ... done   (      0.0 sec)

----------------------------------------------
Forming right-hand sides of CP-SCF equations     ...
----------------------------------------------
One electron integral derivatives                ... done   (      6.3 sec)
Transforming the overlap derivative matrices     ... done   (      0.0 sec)
[...]
     16      -0.017460  -0.102316   0.017606   0.152804   0.428412   0.366842
     17      -0.014591   0.075883   0.010304  -0.089424  -0.276643  -0.241809
     18      -0.183291   0.047275  -0.162369  -0.104006   0.150975   0.167142
     19       0.254379  -0.042326   0.123190   0.061475  -0.208380  -0.197643
     20       0.154596  -0.033957  -0.473664  -0.449217  -0.152047  -0.098256
     21      -0.266297   0.016670  -0.383609  -0.349861   0.009087   0.009145
     22       0.054579  -0.093195  -0.268120  -0.121583   0.314594   0.296041
     23       0.150640  -0.101917  -0.069472   0.047308   0.274845   0.256368
     24       0.036302   0.051000  -0.055014  -0.020133  -0.009242   0.073534
     25       0.072918   0.039455   0.059878  -0.000971   0.022711   0.046330
     26      -0.044159  -0.031706  -0.029820   0.044094  -0.021868  -0.052627
     27      -0.034186  -0.058037   0.211189  -0.224347  -0.102946   0.179267
     28      -0.187248  -0.067751   0.354927  -0.398953  -0.061072   0.176080
     29       0.354728  -0.125488  -0.003284   0.071384  -0.314191   0.345069
     30       0.230267  -0.006847  -0.259368   0.299255   0.031151  -0.135017
     31      -0.089449   0.002883   0.298738  -0.333897   0.072602   0.052336
     32       0.354270  -0.069232   0.195545  -0.225839   0.314827  -0.280745
     33       0.022750  -0.124359   0.002744   0.044584  -0.479860   0.500407
     34      -0.428825   0.112465  -0.216996   0.232488  -0.066494  -0.036777
     35       0.205102  -0.027426   0.099853  -0.125174   0.123260  -0.076391
     36      -0.024116  -0.098053  -0.005125   0.007414  -0.008009  -0.007929
     37      -0.130893  -0.625426  -0.020315   0.047057  -0.023775  -0.094520
     38       0.041334   0.192126   0.003187  -0.012123   0.002034   0.034443
     39      -0.118111  -0.637933   0.002213   0.052168   0.002903  -0.100159
     40      -0.019998  -0.130097   0.005301   0.013745   0.007821  -0.012599
     41      -0.013855  -0.086877   0.001717   0.007813   0.001252  -0.013354
     42      -0.000343   0.000015   0.000124   0.000204   0.000273  -0.000117
     43      -0.000067   0.000228  -0.000120  -0.000024  -0.000221  -0.000079
     44       0.000763   0.000329   0.000023  -0.000413   0.000138   0.000057
                 36         37         38         39         40         41    
      0      -0.020440  -0.041982  -0.001746  -0.001525  -0.022059  -0.015840
      1       0.008513   0.017818  -0.004177  -0.004248  -0.068252  -0.023802
      2       0.000812   0.001951  -0.007501   0.004347   0.059618  -0.033992
      3       0.001058   0.001277   0.008050   0.000899  -0.000149   0.000579
      4      -0.001619   0.000781   0.044324  -0.001319  -0.000106   0.001811
      5       0.000553   0.000769   0.068378  -0.002188   0.002015   0.003096
      6      -0.016496   0.008412  -0.000022   0.085592  -0.005248   0.021112
      7       0.032313  -0.016086  -0.005740   0.000993   0.000717   0.062681
      8      -0.027546   0.013934  -0.006945  -0.036626   0.002629   0.049532
      9      -0.000078   0.000256  -0.000009  -0.000589   0.000276   0.000066
     10      -0.000022   0.000096   0.000473  -0.000225   0.000510   0.000033
     11       0.000107  -0.000262   0.000704   0.000076  -0.000295   0.000075
     12       0.000003  -0.000014  -0.000072   0.000000  -0.000001  -0.000003
     13       0.000003  -0.000003  -0.000039  -0.000001  -0.000000  -0.000001
     14      -0.000010   0.000020   0.000069  -0.000000  -0.000000   0.000002
     15      -0.010511  -0.019875   0.005532  -0.000951  -0.008233   0.012440
     16      -0.120794  -0.245504   0.046819  -0.006583  -0.088576   0.212101
     17      -0.194708  -0.394584   0.075124  -0.009658  -0.113397   0.338519
     18       0.182435   0.368065   0.015840   0.026644   0.459026   0.150288
     19       0.187834   0.376520   0.018217   0.028401   0.456540   0.152997
     20      -0.022194  -0.044908  -0.004446  -0.002874  -0.043579  -0.020140
     21       0.063859   0.133420   0.003429  -0.013205  -0.188997   0.028128
     22      -0.166241  -0.338316  -0.016368   0.030282   0.447606  -0.079915
     23       0.206171   0.416652   0.017343  -0.038183  -0.555678   0.089755
     24      -0.000069  -0.002773  -0.089565   0.001216  -0.000900  -0.004587
     25       0.004346  -0.011513  -0.529053   0.014581  -0.008220  -0.018748
     26       0.004370  -0.017733  -0.828580   0.023848  -0.015623  -0.032752
     27       0.487737  -0.242157  -0.028810  -0.608409   0.040887   0.170772
     28      -0.266445   0.133416   0.012365   0.345994  -0.022404  -0.085286
     29      -0.147553   0.071450   0.008187   0.180129  -0.011666  -0.044518
     30      -0.363016   0.177083   0.015545  -0.457430   0.026175  -0.316407
     31      -0.343403   0.168293   0.011163  -0.455229   0.027984  -0.301642
     32       0.074153  -0.036918  -0.003745   0.092421  -0.006009   0.069285
     33       0.067382  -0.033558   0.013447   0.043349  -0.004308  -0.108154
     34       0.239327  -0.117678   0.047927   0.101117  -0.010557  -0.366787
     35       0.392197  -0.194467   0.075327   0.163751  -0.017693  -0.622746
     36      -0.001894   0.004752  -0.003417   0.004577  -0.002637  -0.001364
     37       0.000798  -0.002586   0.002061  -0.002083   0.001214   0.000182
     38      -0.001059   0.002873  -0.000751   0.001929  -0.000553   0.000353
     39       0.001251  -0.003441   0.002398  -0.000948   0.002774   0.000560
     40      -0.001342   0.005054  -0.003723   0.002189  -0.004379  -0.002224
     41       0.000460  -0.001366   0.002230  -0.001303   0.001655   0.000098
     42       0.000025   0.000056  -0.000001  -0.000009   0.000005  -0.000051
     43      -0.000040   0.000045  -0.000002  -0.000037   0.000021   0.000121
     44       0.000004   0.000031  -0.000010  -0.000006   0.000011  -0.000031
                  42         43         44    
      0      -0.030257  -0.000600  -0.000289
      1      -0.045142   0.000423  -0.000074
      2      -0.061450  -0.000462   0.000135
      3      -0.001224  -0.002477   0.000128
      4      -0.006533  -0.002521  -0.000142
      5      -0.009892   0.000167   0.000141
      6      -0.010842   0.000600   0.000153
      7      -0.033137  -0.000734   0.000219
      8      -0.025858   0.000023  -0.000191
      9       0.000022   0.041929   0.071599
     10      -0.000213   0.049453  -0.063187
     11      -0.000187   0.000489   0.036565
     12       0.000007   0.000010  -0.000055
     13       0.000007  -0.000055   0.000049
     14      -0.000002  -0.000111  -0.000031
     15       0.019058   0.001294  -0.000460
     16       0.391514   0.000471  -0.000137
     17       0.621900   0.000786   0.000064
     18       0.292605   0.002082   0.000313
     19       0.294938   0.000513   0.000969
     20      -0.038065  -0.000388  -0.000242
     21       0.050623   0.002966  -0.001757
     22      -0.139242  -0.005396   0.000849
     23       0.157219   0.005749  -0.000740
     24       0.010148   0.000589  -0.000035
     25       0.067298   0.003103  -0.000425
     26       0.105939   0.004829  -0.000417
     27      -0.092003  -0.007501  -0.001074
     28       0.047357   0.004458   0.001688
     29       0.024176   0.001307  -0.000484
     30       0.166898   0.000634  -0.001135
     31       0.160016   0.001628  -0.000554
     32      -0.036976  -0.001105  -0.000044
     33       0.058060   0.000255   0.000191
     34       0.191236   0.002082   0.000502
     35       0.328868   0.000832  -0.000751
     36       0.004277  -0.647561  -0.671339
     37      -0.000500   0.104456   0.097555
     38       0.001287  -0.222824  -0.231491
     39      -0.001068   0.179706  -0.164536
     40       0.004515  -0.663161   0.640449
     41      -0.001752   0.208829  -0.196170
     42      -0.000154  -0.000108  -0.000180
     43      -0.000140   0.000092   0.000164
     44      -0.000055   0.000380  -0.000071


-----------
IR SPECTRUM
-----------

 Mode    freq (cm**-1)   T**2         TX         TY         TZ
-------------------------------------------------------------------
   7:        38.01    1.442023  (  0.856525  -0.648780   0.536165)
   8:       112.29   12.089054  ( -2.378912  -1.662273   1.914857)
   9:       140.25   16.369695  ( -0.727321  -2.378174  -3.191393)
  10:       154.47    9.014174  ( -2.028514   2.129216  -0.604769)
  11:       188.41   13.456535  ( -2.704397  -2.101271   1.314319)
  12:       241.84    3.923970  ( -0.929438   0.312594  -1.721162)
  13:       262.03   14.534738  ( -1.012202   1.281487   3.444993)
  14:       362.85    8.444381  (  1.785619   0.599477  -2.212820)
  15:       391.33    1.288478  (  0.902545  -0.679907   0.107779)
  16:       501.75  186.053776  (  2.444096  -4.495689 -12.643929)
  17:       808.73   11.529356  (  2.483189  -2.186223   0.763909)
  18:       823.67   18.667435  (  3.092719   2.494518  -1.697029)
  19:       915.02    6.403684  (  0.892149  -1.046489   2.124292)
  20:       923.79  243.710032  ( -4.117332   4.063191  14.499934)
  21:       952.89    1.368854  (  0.809961  -0.787521   0.304346)
  22:       974.32    0.613857  ( -0.334171  -0.472713   0.527949)
  23:       978.43   30.093403  ( -4.055581  -3.068002   2.057434)
  24:      1085.51   33.833485  (  2.957112   0.519316  -4.981896)
  25:      1191.63    0.314977  (  0.421956  -0.175059   0.326014)
  26:      1207.84    2.838416  (  0.410595  -0.517498  -1.549846)
  27:      1306.00    5.725093  (  0.995505  -0.146271  -2.170868)
  28:      1311.55    0.127593  ( -0.206793   0.143515  -0.253442)
  29:      1362.83   14.760842  ( -2.866709   2.271068  -1.176891)
  30:      1370.65    7.709552  ( -1.432490  -1.870400   1.469397)
  31:      1415.52    8.295544  (  0.615278  -0.743164  -2.713795)
  32:      1437.07    0.542050  ( -0.211565   0.387279  -0.589326)
  33:      1449.06   16.072269  (  0.937646  -0.827679  -3.808941)
  34:      1456.86    0.999676  ( -0.212025   0.880800   0.422981)
  35:      1473.95   16.891330  (  3.012327   2.731150  -0.598364)
  36:      3046.87   55.807943  ( -3.774368   5.636896  -3.128497)
  37:      3050.87   36.315838  ( -5.601467  -1.684147   1.450191)
  38:      3083.71   22.208527  ( -0.951119   1.267792   4.438086)
  39:      3141.44   33.318078  (  5.525225   0.384876  -1.625372)
  40:      3144.43   37.202250  ( -1.907032  -4.632260   3.479604)
  41:      3162.89    1.286324  (  0.413560   0.825638   0.658494)
  42:      3165.68   15.616034  ( -0.992247  -2.322735  -3.039142)
  43:      3242.58   19.858751  (  1.897127  -0.126439  -4.030344)
  44:      3375.17    9.443892  ( -2.116556   1.828787  -1.272643)

The first frequency considered to be a vibration is 7
The total number of vibrations considered is 38


--------------------------
THERMOCHEMISTRY AT 298.15K
--------------------------

Temperature         ... 298.15 K
Pressure            ... 1.00 atm
Total Mass          ... 219.47 AMU

Throughout the following assumptions are being made:
  (1) The electronic state is orbitally nondegenerate
  (2) There are no thermally accessible electronically excited states
  (3) Hindered rotations indicated by low frequency modes are not
      treated as such but are treated as vibrations and this may
      cause some error
  (4) All equations used are the standard statistical mechanics
      equations for an ideal gas
  (5) All vibrations are strictly harmonic

freq.      38.01  E(vib)   ...       0.54 
freq.     112.29  E(vib)   ...       0.45 
freq.     140.25  E(vib)   ...       0.41 
freq.     154.47  E(vib)   ...       0.40 
freq.     188.41  E(vib)   ...       0.36 
freq.     241.84  E(vib)   ...       0.31 
freq.     262.03  E(vib)   ...       0.29 
freq.     362.85  E(vib)   ...       0.22 
freq.     391.33  E(vib)   ...       0.20 
freq.     501.75  E(vib)   ...       0.14 
freq.     808.73  E(vib)   ...       0.05 
freq.     823.67  E(vib)   ...       0.05 
freq.     915.02  E(vib)   ...       0.03 
freq.     923.79  E(vib)   ...       0.03 
freq.     952.89  E(vib)   ...       0.03 
freq.     974.32  E(vib)   ...       0.03 
freq.     978.43  E(vib)   ...       0.03 
freq.    1085.51  E(vib)   ...       0.02 
freq.    1191.63  E(vib)   ...       0.01 
freq.    1207.84  E(vib)   ...       0.01 
freq.    1306.00  E(vib)   ...       0.01 
freq.    1311.55  E(vib)   ...       0.01 
freq.    1362.83  E(vib)   ...       0.01 
freq.    1370.65  E(vib)   ...       0.01 
freq.    1415.52  E(vib)   ...       0.00 
freq.    1437.07  E(vib)   ...       0.00 
freq.    1449.06  E(vib)   ...       0.00 
freq.    1456.86  E(vib)   ...       0.00 
freq.    1473.95  E(vib)   ...       0.00 
freq.    3046.87  E(vib)   ...       0.00 
freq.    3050.87  E(vib)   ...       0.00 
freq.    3083.71  E(vib)   ...       0.00 
freq.    3141.44  E(vib)   ...       0.00 
freq.    3144.43  E(vib)   ...       0.00 
freq.    3162.89  E(vib)   ...       0.00 
freq.    3165.68  E(vib)   ...       0.00 
freq.    3242.58  E(vib)   ...       0.00 
freq.    3375.17  E(vib)   ...       0.00 

------------
INNER ENERGY
------------

The inner energy is: U= E(el) + E(ZPE) + E(vib) + E(rot) + E(trans)
    E(el)   - is the total energy from the electronic structure calculation
              = E(kin-el) + E(nuc-el) + E(el-el) + E(nuc-nuc)
    E(ZPE)  - the the zero temperature vibrational energy from the frequency calculation
    E(vib)  - the the finite temperature correction to E(ZPE) due to population
              of excited vibrational states
    E(rot)  - is the rotational thermal energy
    E(trans)- is the translational thermal energy

Summary of contributions to the inner energy U:
Electronic energy                ...   -915.31125543 Eh
Zero point energy                ...      0.12131735 Eh      76.13 kcal/mol
Thermal vibrational correction   ...      0.00580528 Eh       3.64 kcal/mol
Thermal rotational correction    ...      0.00141627 Eh       0.89 kcal/mol
Thermal translational correction ...      0.00141627 Eh       0.89 kcal/mol
-----------------------------------------------------------------------
Total thermal energy                   -915.18130025 Eh


Summary of corrections to the electronic energy:
(perhaps to be used in another calculation)
Total thermal correction                  0.00863782 Eh       5.42 kcal/mol
Non-thermal (ZPE) correction              0.12131735 Eh      76.13 kcal/mol
-----------------------------------------------------------------------
Total correction                          0.12995518 Eh      81.55 kcal/mol


--------
ENTHALPY
--------

The enthalpy is H = U + kB*T
                kB is Boltzmann's constant
Total free energy                 ...   -915.18130025 Eh 
Thermal Enthalpy correction       ...      0.00094421 Eh       0.59 kcal/mol
-----------------------------------------------------------------------
Total Enthalpy                    ...   -915.18035604 Eh


Note: Only C1 symmetry has been detected, increase convergence thresholds 
      if your molecule has a higher symmetry. Symmetry factor of 1.0 is   
      used for the rotational entropy correction. 
 

Note: Rotational entropy computed according to Herzberg 
Infrared and Raman Spectra, Chapter V,1, Van Nostrand Reinhold, 1945 
Point Group:  C1, Symmetry Number:   1  
Rotational constants in cm-1:     0.074557     0.017482     0.015659 

Vibrational entropy computed according to the QRRHO of S. Grimme
Chem.Eur.J. 2012 18 9955


-------
ENTROPY
-------

The entropy contributions are T*S = T*(S(el)+S(vib)+S(rot)+S(trans))
     S(el)   - electronic entropy
     S(vib)  - vibrational entropy
     S(rot)  - rotational entropy
     S(trans)- translational entropy
The entropies will be listed as mutliplied by the temperature to get
units of energy

Electronic entropy                ...      0.00000000 Eh      0.00 kcal/mol
Vibrational entropy               ...      0.01043277 Eh      6.55 kcal/mol
Rotational entropy                ...      0.01460915 Eh      9.17 kcal/mol
Translational entropy             ...      0.01998449 Eh     12.54 kcal/mol
-----------------------------------------------------------------------
Final entropy term                ...      0.04502641 Eh     28.25 kcal/mol

In case the symmetry of your molecule has not been determined correctly
or in case you have a reason to use a different symmetry number we print 
out the resulting rotational entropy values for sn=1,12 :
 --------------------------------------------------------
|  sn= 1 | S(rot)=       0.01460915 Eh      9.17 kcal/mol|
|  sn= 2 | S(rot)=       0.01395470 Eh      8.76 kcal/mol|
|  sn= 3 | S(rot)=       0.01357187 Eh      8.52 kcal/mol|
|  sn= 4 | S(rot)=       0.01330024 Eh      8.35 kcal/mol|
|  sn= 5 | S(rot)=       0.01308955 Eh      8.21 kcal/mol|
|  sn= 6 | S(rot)=       0.01291741 Eh      8.11 kcal/mol|
|  sn= 7 | S(rot)=       0.01277186 Eh      8.01 kcal/mol|
|  sn= 8 | S(rot)=       0.01264579 Eh      7.94 kcal/mol|
|  sn= 9 | S(rot)=       0.01253458 Eh      7.87 kcal/mol|
|  sn=10 | S(rot)=       0.01243510 Eh      7.80 kcal/mol|
|  sn=11 | S(rot)=       0.01234511 Eh      7.75 kcal/mol|
|  sn=12 | S(rot)=       0.01226295 Eh      7.70 kcal/mol|
 --------------------------------------------------------


-------------------
GIBBS FREE ENERGY
-------------------

The Gibbs free energy is G = H - T*S

Total enthalpy                    ...   -915.18035604 Eh 
Total entropy correction          ...     -0.04502641 Eh    -28.25 kcal/mol
-----------------------------------------------------------------------
Final Gibbs free energy         ...   -915.22538246 Eh

For completeness - the Gibbs free energy minus the electronic energy
G-E(el)                           ...      0.08587297 Eh     53.89 kcal/mol

[1631613662.797125] [comp0801:106066:0]            sys.c:618  UCX  ERROR shmget(size=2097152 flags=0xfb0) for mm_recv_desc failed: Operation not permitted, please check shared memory limits by 'ipcs -l'
[1631613662.797677] [comp0801:106068:0]            sys.c:618  UCX  ERROR shmget(size=2097152 flags=0xfb0) for mm_recv_desc failed: Operation not permitted, please check shared memory limits by 'ipcs -l'
[1631613662.799316] [comp0801:106069:0]            sys.c:618  UCX  ERROR shmget(size=2097152 flags=0xfb0) for mm_recv_desc failed: Operation not permitted, please check shared memory limits by 'ipcs -l'
[1631613662.799488] [comp0801:106067:0]            sys.c:618  UCX  ERROR shmget(size=2097152 flags=0xfb0) for mm_recv_desc failed: Operation not permitted, please check shared memory limits by 'ipcs -l'
[1631613662.807060] [comp0801:106066:0]            sys.c:618  UCX  ERROR shmget(size=2097152 flags=0xb80) for ucp_am_bufs failed: Operation not permitted, please check shared memory limits by 'ipcs -l'
[1631613662.807077] [comp0801:106068:0]            sys.c:618  UCX  ERROR shmget(size=2097152 flags=0xb80) for ucp_am_bufs failed: Operation not permitted, please check shared memory limits by 'ipcs -l'
[1631613662.807853] [comp0801:106067:0]            sys.c:618  UCX  ERROR shmget(size=2097152 flags=0xb80) for ucp_am_bufs failed: Operation not permitted, please check shared memory limits by 'ipcs -l'
[1631613662.807877] [comp0801:106069:0]            sys.c:618  UCX  ERROR shmget(size=2097152 flags=0xb80) for ucp_am_bufs failed: Operation not permitted, please check shared memory limits by 'ipcs -l'

Timings for individual modules:

Sum of individual times         ...      313.440 sec (=   5.224 min)
GTO integral calculation        ...       13.708 sec (=   0.228 min)   4.4 %
SCF iterations                  ...      106.571 sec (=   1.776 min)  34.0 %
SCF Gradient evaluation         ...       35.753 sec (=   0.596 min)  11.4 %
Geometry relaxation             ...        1.500 sec (=   0.025 min)   0.5 %
Analytical frequency calculation...      155.909 sec (=   2.598 min)  49.7 %
                             ****ORCA TERMINATED NORMALLY****
TOTAL RUN TIME: 0 days 0 hours 5 minutes 18 seconds 60 msec
