
                                 *****************
                                 * O   R   C   A *
                                 *****************

           --- An Ab Initio, DFT and Semiempirical electronic structure package ---

                  #######################################################
                  #                        -***-                        #
                  #          Department of theory and spectroscopy      #
                  #               Directorship: Frank Neese             #
                  #        Max Planck Institute fuer Kohlenforschung    #
                  #                Kaiser Wilhelm Platz 1               #
                  #                 D-45470 Muelheim/Ruhr               #
                  #                      Germany                        #
                  #                                                     #
                  #                  All rights reserved                #
                  #                        -***-                        #
                  #######################################################


                         Program Version 4.2.1 -  RELEASE  -


 With contributions from (in alphabetic order):
   Daniel Aravena         : Magnetic Suceptibility
   Michael Atanasov       : Ab Initio Ligand Field Theory (pilot matlab implementation)
   Alexander A. Auer      : GIAO ZORA, VPT2
   Ute Becker             : Parallelization
   Giovanni Bistoni       : ED, misc. LED, open-shell LED, HFLD
   Martin Brehm           : Molecular dynamics
   Dmytro Bykov           : SCF Hessian
   Vijay G. Chilkuri      : MRCI spin determinant printing, contributions to CSF-ICE
   Dipayan Datta          : RHF DLPNO-CCSD density
   Achintya Kumar Dutta   : EOM-CC, STEOM-CC
   Dmitry Ganyushin       : Spin-Orbit,Spin-Spin,Magnetic field MRCI
   Miquel Garcia          : C-PCM Hessian, Gaussian charge scheme
   Yang Guo               : DLPNO-NEVPT2, CIM, IAO-localization
   Andreas Hansen         : Spin unrestricted coupled pair/coupled cluster methods
   Benjamin Helmich-Paris : CASSCF linear response (MC-RPA)
   Lee Huntington         : MR-EOM, pCC
   Robert Izsak           : Overlap fitted RIJCOSX, COSX-SCS-MP3, EOM
   Christian Kollmar      : KDIIS, OOCD, Brueckner-CCSD(T), CCSD density
   Simone Kossmann        : Meta GGA functionals, TD-DFT gradient, OOMP2, MP2 Hessian
   Martin Krupicka        : AUTO-CI
   Lucas Lang             : DCDCAS
   Dagmar Lenk            : GEPOL surface, SMD
   Dimitrios Liakos       : Extrapolation schemes; Compound Job, initial MDCI parallelization
   Dimitrios Manganas     : Further ROCIS development; embedding schemes
   Dimitrios Pantazis     : SARC Basis sets
   Taras Petrenko         : DFT Hessian,TD-DFT gradient, ASA, ECA, R-Raman, ABS, FL, XAS/XES, NRVS
   Peter Pinski           : DLPNO-MP2, DLPNO-MP2 Gradient
   Christoph Reimann      : Effective Core Potentials
   Marius Retegan         : Local ZFS, SOC
   Christoph Riplinger    : Optimizer, TS searches, QM/MM, DLPNO-CCSD(T), (RO)-DLPNO pert. Triples
   Tobias Risthaus        : Range-separated hybrids, TD-DFT gradient, RPA, STAB
   Michael Roemelt        : Original ROCIS implementation
   Masaaki Saitow         : Open-shell DLPNO-CCSD energy and density
   Barbara Sandhoefer     : DKH picture change effects
   Avijit Sen             : IP-ROCIS
   Kantharuban Sivalingam : CASSCF convergence, NEVPT2, FIC-MRCI
   Bernardo de Souza      : ESD, SOC TD-DFT
   Georgi Stoychev        : AutoAux, RI-MP2 NMR
   Willem Van den Heuvel  : Paramagnetic NMR
   Boris Wezisla          : Elementary symmetry handling
   Frank Wennmohs         : Technical directorship


 We gratefully acknowledge several colleagues who have allowed us to
 interface, adapt or use parts of their codes:
   Stefan Grimme, W. Hujo, H. Kruse,             : VdW corrections, initial TS optimization,
                  C. Bannwarth                     DFT functionals, gCP, sTDA/sTD-DF
   Ed Valeev, F. Pavosevic, A. Kumar             : LibInt (2-el integral package), F12 methods
   Garnet Chan, S. Sharma, J. Yang, R. Olivares  : DMRG
   Ulf Ekstrom                                   : XCFun DFT Library
   Mihaly Kallay                                 : mrcc  (arbitrary order and MRCC methods)
   Andreas Klamt, Michael Diedenhofen            : otool_cosmo (COSMO solvation model)
   Jiri Pittner, Ondrej Demel                    : Mk-CCSD
   Frank Weinhold                                : gennbo (NPA and NBO analysis)
   Christopher J. Cramer and Donald G. Truhlar   : smd solvation model
   Lars Goerigk                                  : TD-DFT with DH, B97 family of functionals
   V. Asgeirsson, H. Jonsson                     : NEB implementation
   FAccTs GmbH                                   : IRC, NEB, NEB-TS, Multilevel, MM, QM/MM, CI optimization
   S Lehtola, MJT Oliveira, MAL Marques          : LibXC Library


 Your calculation uses the libint2 library for the computation of 2-el integrals
 For citations please refer to: http://libint.valeyev.net

 Your ORCA version has been built with support for libXC version: 4.2.3
 For citations please refer to: https://tddft.org/programs/libxc/

 This ORCA versions uses:
   CBLAS   interface :  Fast vector & matrix operations
   LAPACKE interface :  Fast linear algebra routines
   SCALAPACK package :  Parallel linear algebra routines


Your calculation utilizes the atom-pairwise dispersion correction
with the Becke-Johnson damping scheme (D3BJ)
Cite in your paper:
S.Grimme, S.Ehrlich, L.Goerigk, J Comput Chem, (2011), 32, 1456–1465 
S.Grimme, J.Antony, S.Ehrlich and H.Krieg, J.Chem.Phys., 132, (2010), 154104 
   

----- Orbital basis set information -----
Your calculation utilizes the basis: def2-SVP
   F. Weigend and R. Ahlrichs, Phys. Chem. Chem. Phys. 7, 3297 (2005).

----- AuxJ basis set information -----
Your calculation utilizes the auxiliary basis: def2/J
   F. Weigend, Phys. Chem. Chem. Phys. 8, 1057 (2006).

================================================================================
                                        WARNINGS
                       Please study these warnings very carefully!
================================================================================


WARNING: Geometry Optimization
  ===> : Switching off AutoStart
         For restart on a previous wavefunction, please use MOREAD

INFO   : the flag for use of LIBINT has been found!

================================================================================
                                       INPUT FILE
================================================================================
NAME = manual_331.inp
|  1> ! OptTS Freq PBE0 RIJCOSX D3BJ def2-SVP def2/J CPCM(Acetone)
|  2> %geom
|  3> modify_internal
|  4> { B 4 17 A } end
|  5> end
|  6> %geom
|  7> modify_internal
|  8> { B 4 5 A } end
|  9> end
| 10> %output 
| 11> xyzfile=True 
| 12> end 
| 13> %scf 
| 14> maxiter 250 
| 15> end
| 16> %output
| 17> Print[P_Hirshfeld] = 1
| 18> end
| 19> % maxcore
| 20> 4000
| 21> %geom
| 22> Calc_Hess true
| 23> Recalc_Hess 30
| 24> Trust -0.1
| 25> MaxIter 150
| 26> end
| 27> %pal nprocs 4
| 28> end
| 29> *xyz -1 1
| 30> C    -0.77738   1.83236  -0.98216
| 31> C    -0.39360   0.40641  -1.41901
| 32> C     0.73039   0.51752  -2.45744
| 33> C    -1.64257  -0.23578  -2.03988
| 34> C     0.09230  -0.45760  -0.26856
| 35> Br    0.10493   0.78923   1.92514
| 36> H    -1.56915   1.81977  -0.22111
| 37> H    -1.14421   2.37711  -1.86738
| 38> H     0.08200   2.37131  -0.56092
| 39> H     1.61383   1.01035  -2.02047
| 40> H     0.39577   1.12228  -3.31428
| 41> H     1.02532  -0.48146  -2.80689
| 42> H    -1.41153  -1.24899  -2.39571
| 43> H    -2.45488  -0.29838  -1.29828
| 44> H    -2.00082   0.37442  -2.88356
| 45> H    -0.58508  -1.11646   0.26165
| 46> H     1.15131  -0.55582  -0.06101
| 47> Br    0.57721  -2.63043  -1.42275 
| 48> *
| 49> 
| 50>                          ****END OF INPUT****
================================================================================

                       *****************************
                       * Geometry Optimization Run *
                       *****************************

Geometry optimization settings:
Update method            Update   .... Bofill
Choice of coordinates    CoordSys .... Z-matrix Internals
Initial Hessian          InHess   .... Almoef's Model

Convergence Tolerances:
Energy Change            TolE     ....  5.0000e-06 Eh
Max. Gradient            TolMAXG  ....  3.0000e-04 Eh/bohr
RMS Gradient             TolRMSG  ....  1.0000e-04 Eh/bohr
Max. Displacement        TolMAXD  ....  4.0000e-03 bohr
RMS Displacement         TolRMSD  ....  2.0000e-03 bohr
Strict Convergence                ....  False
------------------------------------------------------------------------------
                        ORCA OPTIMIZATION COORDINATE SETUP
------------------------------------------------------------------------------

The optimization will be done in new redundant internal coordinates
Making redundant internal coordinates   ...  (new redundants) Bond  17,  4 is already included
Bond   5,  4 is already included
done
Following TS mode number                ...     0
Evaluating the initial hessian          ...  (Is done on the fly) done
Evaluating the coordinates              ...  done
Calculating the B-matrix                .... done
Calculating the G-matrix                .... done
Diagonalizing the G-matrix              .... done
The first mode is                       ....   92
The number of degrees of freedom        ....   48

    -----------------------------------------------------------------
                    Redundant Internal Coordinates


    -----------------------------------------------------------------
         Definition                    Initial Value    d2E/dq (diagonal element)
    -----------------------------------------------------------------
      1. B(C   1,C   0)                  1.5400         0.000000   
      2. B(C   2,C   1)                  1.5343         0.000000   
      3. B(C   3,C   1)                  1.5355         0.000000   
      4. B(C   4,C   1)                  1.5186         0.000000   
      5. B(Br  5,C   0)                  3.2123         0.000000   
      6. B(Br  5,C   4)                  2.5233         0.000000   
      7. B(H   6,C   0)                  1.0983         0.000000   
      8. B(H   6,Br  5)                  2.9105         0.000000   
      9. B(H   7,C   0)                  1.1022         0.000000   
     10. B(H   8,C   0)                  1.0984         0.000000   
     11. B(H   8,Br  5)                  2.9469         0.000000   
     12. B(H   9,C   2)                  1.1019         0.000000   
     13. B(H  10,C   2)                  1.1009         0.000000   
     14. B(H  11,C   2)                  1.0987         0.000000   
     15. B(H  12,C   3)                  1.0984         0.000000   
     16. B(H  13,C   3)                  1.1017         0.000000   
     17. B(H  14,C   3)                  1.1011         0.000000   
     18. B(H  15,C   4)                  1.0835         0.000000   
     19. B(H  15,Br  5)                  2.6220         0.000000   
     20. B(H  16,C   4)                  1.0836         0.000000   
     21. B(H  16,Br  5)                  2.6170         0.000000   
     22. B(Br 17,H  16)                  2.5471         0.000000   
     23. B(Br 17,H  15)                  2.5456         0.000000   
     24. B(Br 17,H  12)                  2.6096         0.000000   
     25. B(Br 17,H  11)                  2.5951         0.000000   
     26. B(Br 17,C   4)                  2.5077         0.000000   
     27. B(Br 17,C   1)                  3.1882         0.000000   
     28. A(C   1,C   0,Br  5)           83.5465         0.000000   
     29. A(C   1,C   0,H   6)          111.4456         0.000000   
     30. A(Br  5,C   0,H   8)           66.2556         0.000000   
     31. A(H   7,C   0,H   8)          109.0192         0.000000   
     32. A(C   1,C   0,H   8)          111.6020         0.000000   
     33. A(H   6,C   0,H   8)          107.6931         0.000000   
     34. A(Br  5,C   0,H   7)          168.1673         0.000000   
     35. A(C   1,C   0,H   7)          108.2250         0.000000   
     36. A(H   6,C   0,H   7)          108.7990         0.000000   
     37. A(Br  5,C   0,H   6)           64.3511         0.000000   
     38. A(C   0,C   1,Br 17)          163.3785         0.000000   
     39. A(C   2,C   1,C   3)          110.6401         0.000000   
     40. A(C   3,C   1,C   4)          109.1852         0.000000   
     41. A(C   2,C   1,C   4)          108.6350         0.000000   
     42. A(C   4,C   1,Br 17)           50.3219         0.000000   
     43. A(C   0,C   1,C   2)          107.9093         0.000000   
     44. A(C   3,C   1,Br 17)           81.3056         0.000000   
     45. A(C   0,C   1,C   4)          113.0582         0.000000   
     46. A(C   0,C   1,C   3)          107.4129         0.000000   
     47. A(C   2,C   1,Br 17)           81.0899         0.000000   
     48. A(H   9,C   2,H  10)          107.8572         0.000000   
     49. A(C   1,C   2,H  10)          110.1146         0.000000   
     50. A(C   1,C   2,H   9)          110.5679         0.000000   
     51. A(H  10,C   2,H  11)          109.4840         0.000000   
     52. A(H   9,C   2,H  11)          108.5161         0.000000   
     53. A(C   1,C   2,H  11)          110.2480         0.000000   
     54. A(H  13,C   3,H  14)          107.9002         0.000000   
     55. A(H  12,C   3,H  14)          109.3530         0.000000   
     56. A(C   1,C   3,H  14)          110.0399         0.000000   
     57. A(C   1,C   3,H  13)          110.5679         0.000000   
     58. A(C   1,C   3,H  12)          110.2226         0.000000   
     59. A(H  12,C   3,H  13)          108.7070         0.000000   
     60. A(H  15,C   4,H  16)          117.5239         0.000000   
     61. A(C   1,C   4,H  16)          120.6220         0.000000   
     62. A(C   1,C   4,H  15)          121.1067         0.000000   
     63. A(Br  5,C   4,H  16)           82.7257         0.000000   
     64. A(Br  5,C   4,H  15)           83.0026         0.000000   
     65. A(C   1,C   4,Br  5)          112.2769         0.000000   
     66. A(H  16,C   4,Br 17)           79.6675         0.000000   
     67. A(H  15,C   4,Br 17)           79.5859         0.000000   
     68. A(C   1,C   4,Br 17)          101.8979         0.000000   
     69. A(Br  5,C   4,Br 17)          145.8241         0.000000   
     70. A(C   0,Br  5,C   4)           51.1161         0.000000   
     71. A(C   1,Br 17,C   4)           27.7801         0.000000   
     72. D(C   4,C   1,C   0,H   8)     61.6750         0.000000   
     73. D(C   2,C   1,C   0,Br  5)   -119.7665         0.000000   
     74. D(Br 17,C   1,C   0,Br  5)      1.1332         0.000000   
     75. D(C   3,C   1,C   0,H   7)    -57.8467         0.000000   
     76. D(C   3,C   1,C   0,H   8)   -177.8066         0.000000   
     77. D(C   4,C   1,C   0,H   6)    -58.7714         0.000000   
     78. D(C   4,C   1,C   0,Br  5)      0.4013         0.000000   
     79. D(C   3,C   1,C   0,Br  5)    120.9197         0.000000   
     80. D(Br 17,C   1,C   0,H   7)   -177.6332         0.000000   
     81. D(Br 17,C   1,C   0,H   6)    -58.0395         0.000000   
     82. D(C   3,C   1,C   0,H   6)     61.7469         0.000000   
     83. D(C   2,C   1,C   0,H   8)    -58.4927         0.000000   
     84. D(Br 17,C   1,C   0,H   8)     62.4069         0.000000   
     85. D(C   2,C   1,C   0,H   6)   -178.9392         0.000000   
     86. D(C   2,C   1,C   0,H   7)     61.4672         0.000000   
     87. D(C   4,C   1,C   0,H   7)   -178.3650         0.000000   
     88. D(H  11,C   2,C   1,Br 17)     15.1659         0.000000   
     89. D(H  10,C   2,C   1,C   4)    178.7782         0.000000   
     90. D(H  10,C   2,C   1,Br 17)    136.0766         0.000000   
     91. D(H  11,C   2,C   1,C   3)    -61.9748         0.000000   
     92. D(H  10,C   2,C   1,C   3)     58.9360         0.000000   
     93. D(H  11,C   2,C   1,C   4)     57.8674         0.000000   
     94. D(H  10,C   2,C   1,C   0)    -58.3090         0.000000   
     95. D(H   9,C   2,C   1,Br 17)   -104.8308         0.000000   
     96. D(H  11,C   2,C   1,C   0)   -179.2197         0.000000   
     97. D(H   9,C   2,C   1,C   4)    -62.1293         0.000000   
     98. D(H   9,C   2,C   1,C   3)    178.0285         0.000000   
     99. D(H   9,C   2,C   1,C   0)     60.7836         0.000000   
    100. D(H  12,C   3,C   1,C   2)     60.8016         0.000000   
    101. D(H  12,C   3,C   1,C   0)    178.3514         0.000000   
    102. D(H  12,C   3,C   1,C   4)    -58.7099         0.000000   
    103. D(H  14,C   3,C   1,Br 17)   -136.8766         0.000000   
    104. D(H  14,C   3,C   1,C   2)    -59.8814         0.000000   
    105. D(H  14,C   3,C   1,C   0)     57.6685         0.000000   
    106. D(H  13,C   3,C   1,Br 17)    104.0248         0.000000   
    107. D(H  13,C   3,C   1,C   4)     61.5085         0.000000   
    108. D(H  13,C   3,C   1,C   2)   -178.9800         0.000000   
    109. D(H  14,C   3,C   1,C   4)   -179.3928         0.000000   
    110. D(H  13,C   3,C   1,C   0)    -61.4301         0.000000   
    111. D(H  12,C   3,C   1,Br 17)    -16.1936         0.000000   
    112. D(Br  5,C   4,C   1,C   3)   -120.0522         0.000000   
    113. D(Br  5,C   4,C   1,C   2)    119.2035         0.000000   
    114. D(Br  5,C   4,C   1,C   0)     -0.5486         0.000000   
    115. D(Br 17,C   4,C   1,C   3)     60.2244         0.000000   
    116. D(Br 17,C   4,C   1,C   2)    -60.5199         0.000000   
    117. D(Br 17,C   4,C   1,C   0)    179.7280         0.000000   
    118. D(H  16,C   4,C   1,Br 17)     84.9349         0.000000   
    119. D(H  16,C   4,C   1,C   3)    145.1593         0.000000   
    120. D(H  16,C   4,C   1,C   2)     24.4150         0.000000   
    121. D(H  16,C   4,C   1,C   0)    -95.3371         0.000000   
    122. D(H  15,C   4,C   1,Br 17)    -84.9158         0.000000   
    123. D(H  15,C   4,C   1,C   3)    -24.6914         0.000000   
    124. D(H  15,C   4,C   1,C   2)   -145.4357         0.000000   
    125. D(Br  5,C   4,C   1,Br 17)    179.7234         0.000000   
    126. D(H  15,C   4,C   1,C   0)     94.8122         0.000000   
    127. D(C   0,Br  5,C   4,H  16)    120.4851         0.000000   
    128. D(C   0,Br  5,C   4,H  15)   -120.5004         0.000000   
    129. D(C   0,Br  5,C   4,C   1)      0.3109         0.000000   
    130. D(C   4,Br  5,C   0,H   8)   -117.3199         0.000000   
    131. D(C   4,Br  5,C   0,H   7)    173.9910         0.000000   
    132. D(C   4,Br  5,C   0,H   6)    117.2619         0.000000   
    133. D(C   0,Br  5,C   4,Br 17)    179.8290         0.000000   
    134. D(C   4,Br  5,C   0,C   1)     -0.2855         0.000000   
    135. D(C   1,Br 17,C   4,Br  5)   -179.5443         0.000000   
    136. D(C   1,Br 17,C   4,H  16)   -119.3881         0.000000   
    137. D(C   1,Br 17,C   4,H  15)    119.8741         0.000000   
    138. D(C   4,Br 17,C   1,C   3)   -123.9731         0.000000   
    139. D(C   4,Br 17,C   1,C   2)    123.3879         0.000000   
    140. D(C   4,Br 17,C   1,C   0)     -0.8750         0.000000   
    -----------------------------------------------------------------

Number of atoms                         .... 18
Number of degrees of freedom            .... 140

         *************************************************************
         *                GEOMETRY OPTIMIZATION CYCLE   1            *
         *************************************************************
---------------------------------
CARTESIAN COORDINATES (ANGSTROEM)
---------------------------------
  C     -0.777380    1.832360   -0.982160
  C     -0.393600    0.406410   -1.419010
  C      0.730390    0.517520   -2.457440
  C     -1.642570   -0.235780   -2.039880
  C      0.092300   -0.457600   -0.268560
  Br     0.104930    0.789230    1.925140
  H     -1.569150    1.819770   -0.221110
  H     -1.144210    2.377110   -1.867380
  H      0.082000    2.371310   -0.560920
  H      1.613830    1.010350   -2.020470
  H      0.395770    1.122280   -3.314280
  H      1.025320   -0.481460   -2.806890
  H     -1.411530   -1.248990   -2.395710
  H     -2.454880   -0.298380   -1.298280
  H     -2.000820    0.374420   -2.883560
  H     -0.585080   -1.116460    0.261650
  H      1.151310   -0.555820   -0.061010
  Br     0.577210   -2.630430   -1.422750

----------------------------
CARTESIAN COORDINATES (A.U.)
----------------------------
  NO LB      ZA    FRAG     MASS         X           Y           Z
   0 C     6.0000    0    12.011   -1.469035    3.462659   -1.856013
   1 C     6.0000    0    12.011   -0.743796    0.768004   -2.681540
   2 C     6.0000    0    12.011    1.380237    0.977971   -4.643889
   3 C     6.0000    0    12.011   -3.104007   -0.445560   -3.854815
   4 C     6.0000    0    12.011    0.174422   -0.864739   -0.507505
   5 Br   35.0000    0    79.900    0.198289    1.491429    3.637987
   6 H     1.0000    0     1.008   -2.965264    3.438867   -0.417837
   7 H     1.0000    0     1.008   -2.162244    4.492087   -3.528837
   8 H     1.0000    0     1.008    0.154958    4.481126   -1.059985
   9 H     1.0000    0     1.008    3.049697    1.909285   -3.818135
  10 H     1.0000    0     1.008    0.747897    2.120802   -6.263082
  11 H     1.0000    0     1.008    1.937574   -0.909828   -5.304253
  12 H     1.0000    0     1.008   -2.667405   -2.360249   -4.527236
  13 H     1.0000    0     1.008   -4.639051   -0.563856   -2.453394
  14 H     1.0000    0     1.008   -3.781002    0.707551   -5.449139
  15 H     1.0000    0     1.008   -1.105641   -2.109804    0.494447
  16 H     1.0000    0     1.008    2.175661   -1.050348   -0.115292
  17 Br   35.0000    0    79.900    1.090769   -4.970792   -2.688608

--------------------------------
INTERNAL COORDINATES (ANGSTROEM)
--------------------------------
 C      0   0   0     0.000000000000     0.00000000     0.00000000
 C      1   0   0     1.539954029639     0.00000000     0.00000000
 C      2   1   0     1.534286745397   107.90929394     0.00000000
 C      2   1   3     1.535517376619   107.41291244   240.68614892
 C      2   1   3     1.518600438759   113.05818702   120.16779117
 Br     5   2   1     2.523304233698   112.27690589   359.45138916
 H      1   2   3     1.098296564458   111.44555355   181.06078587
 H      1   2   3     1.102239202623   108.22499372    61.46717737
 H      1   2   3     1.098382549251   111.60197235   301.50725000
 H      3   2   1     1.101948466762   110.56788725    60.78355984
 H      3   2   1     1.100854208149   110.11457770   301.69102341
 H      3   2   1     1.098662845372   110.24797329   180.78027610
 H      4   2   1     1.098448439664   110.22264587   178.35144113
 H      4   2   1     1.101697261547   110.56790563   298.56987283
 H      4   2   1     1.101128078336   110.03991306    57.66850168
 H      5   2   1     1.083541788811   121.10667811    94.81221347
 H      5   2   1     1.083617253000   120.62195582   264.66288307
 Br     5   2   1     2.507684683747   101.89793841   179.72799462

---------------------------
INTERNAL COORDINATES (A.U.)
---------------------------
 C      0   0   0     0.000000000000     0.00000000     0.00000000
 C      1   0   0     2.910091374845     0.00000000     0.00000000
 C      2   1   0     2.899381759705   107.90929394     0.00000000
 C      2   1   3     2.901707315688   107.41291244   240.68614892
 C      2   1   3     2.869738936108   113.05818702   120.16779117
 Br     5   2   1     4.768353954254   112.27690589   359.45138916
 H      1   2   3     2.075479720652   111.44555355   181.06078587
 H      1   2   3     2.082930227030   108.22499372    61.46717737
 H      1   2   3     2.075642208363   111.60197235   301.50725000
 H      3   2   1     2.082380815875   110.56788725    60.78355984
 H      3   2   1     2.080312966777   110.11457770   301.69102341
 H      3   2   1     2.076171891267   110.24797329   180.78027610
 H      4   2   1     2.075766723198   110.22264587   178.35144113
 H      4   2   1     2.081906106815   110.56790563   298.56987283
 H      4   2   1     2.080830506426   110.03991306    57.66850168
 H      5   2   1     2.047597235512   121.10667811    94.81221347
 H      5   2   1     2.047739842163   120.62195582   264.66288307
 Br     5   2   1     4.738837282511   101.89793841   179.72799462

---------------------
BASIS SET INFORMATION
---------------------
There are 3 groups of distinct atoms

 Group   1 Type C   : 7s4p1d contracted to 3s2p1d pattern {511/31/1}
 Group   2 Type Br  : 14s10p6d contracted to 5s4p3d pattern {63311/5311/411}
 Group   3 Type H   : 4s1p contracted to 2s1p pattern {31/1}

Atom   0C    basis set group =>   1
Atom   1C    basis set group =>   1
Atom   2C    basis set group =>   1
Atom   3C    basis set group =>   1
Atom   4C    basis set group =>   1
Atom   5Br   basis set group =>   2
Atom   6H    basis set group =>   3
Atom   7H    basis set group =>   3
Atom   8H    basis set group =>   3
Atom   9H    basis set group =>   3
Atom  10H    basis set group =>   3
Atom  11H    basis set group =>   3
Atom  12H    basis set group =>   3
Atom  13H    basis set group =>   3
Atom  14H    basis set group =>   3
Atom  15H    basis set group =>   3
Atom  16H    basis set group =>   3
Atom  17Br   basis set group =>   2
---------------------------------
AUXILIARY/J BASIS SET INFORMATION
---------------------------------
There are 3 groups of distinct atoms

 Group   1 Type C   : 12s5p4d2f1g contracted to 6s4p3d1f1g pattern {711111/2111/211/2/1}
 Group   2 Type Br  : 19s5p5d3f1g contracted to 8s4p3d2f1g pattern {121111111/2111/311/21/1}
 Group   3 Type H   : 5s2p1d contracted to 3s1p1d pattern {311/2/1}

Atom   0C    basis set group =>   1
Atom   1C    basis set group =>   1
Atom   2C    basis set group =>   1
Atom   3C    basis set group =>   1
Atom   4C    basis set group =>   1
Atom   5Br   basis set group =>   2
Atom   6H    basis set group =>   3
Atom   7H    basis set group =>   3
Atom   8H    basis set group =>   3
Atom   9H    basis set group =>   3
Atom  10H    basis set group =>   3
Atom  11H    basis set group =>   3
Atom  12H    basis set group =>   3
Atom  13H    basis set group =>   3
Atom  14H    basis set group =>   3
Atom  15H    basis set group =>   3
Atom  16H    basis set group =>   3
Atom  17Br   basis set group =>   2
[1631208313.275029] [comp0810:207862:0]            sys.c:618  UCX  ERROR shmget(size=2097152 flags=0xfb0) for mm_recv_desc failed: Operation not permitted, please check shared memory limits by 'ipcs -l'
[1631208313.275064] [comp0810:207864:0]            sys.c:618  UCX  ERROR shmget(size=2097152 flags=0xfb0) for mm_recv_desc failed: Operation not permitted, please check shared memory limits by 'ipcs -l'
[1631208313.275038] [comp0810:207868:0]            sys.c:618  UCX  ERROR shmget(size=2097152 flags=0xfb0) for mm_recv_desc failed: Operation not permitted, please check shared memory limits by 'ipcs -l'
[1631208313.275208] [comp0810:207871:0]            sys.c:618  UCX  ERROR shmget(size=2097152 flags=0xfb0) for mm_recv_desc failed: Operation not permitted, please check shared memory limits by 'ipcs -l'
[1631208313.305185] [comp0810:207862:0]            sys.c:618  UCX  ERROR shmget(size=2097152 flags=0xb80) for ucp_am_bufs failed: Operation not permitted, please check shared memory limits by 'ipcs -l'
[1631208313.305187] [comp0810:207868:0]            sys.c:618  UCX  ERROR shmget(size=2097152 flags=0xb80) for ucp_am_bufs failed: Operation not permitted, please check shared memory limits by 'ipcs -l'
[1631208313.318339] [comp0810:207871:0]            sys.c:618  UCX  ERROR shmget(size=2097152 flags=0xb80) for ucp_am_bufs failed: Operation not permitted, please check shared memory limits by 'ipcs -l'
[1631208313.318342] [comp0810:207864:0]            sys.c:618  UCX  ERROR shmget(size=2097152 flags=0xb80) for ucp_am_bufs failed: Operation not permitted, please check shared memory limits by 'ipcs -l'


           ************************************************************
           *        Program running with 4 parallel MPI-processes     *
           *              working on a common directory               *
           ************************************************************
------------------------------------------------------------------------------
                           ORCA GTO INTEGRAL CALCULATION
                           -- RI-GTO INTEGRALS CHOSEN --
------------------------------------------------------------------------------

                         BASIS SET STATISTICS AND STARTUP INFO

Gaussian basis set:
 # of primitive gaussian shells          ...  175
 # of primitive gaussian functions       ...  345
 # of contracted shells                  ...   87
 # of contracted basis functions         ...  189
 Highest angular momentum                ...    2
 Maximum contraction depth               ...    6
Auxiliary gaussian basis set:
 # of primitive gaussian shells          ...  274
 # of primitive gaussian functions       ...  704
 # of contracted shells                  ...  166
 # of contracted aux-basis functions     ...  482
 Highest angular momentum                ...    4
 Maximum contraction depth               ...   12
Ratio of auxiliary to basis functions    ...  2.55
Integral package used                  ... LIBINT
 One Electron integrals                  ... done
 Ordering auxiliary basis shells         ... done
 Integral threshhold             Thresh  ...  2.500e-11
 Primitive cut-off               TCut    ...  2.500e-12
 Pre-screening matrix                    ... done
 Shell pair data                         ... 
 Ordering of the shell pairs             ... done (   0.001 sec) 3477 of 3828 pairs
 Determination of significant pairs      ... done (   0.000 sec)
 Creation of shell pair data             ... done (   0.001 sec)
 Storage of shell pair data              ... done (   0.001 sec)
 Shell pair data done in (   0.002 sec)
 Computing two index integrals           ... done
 Cholesky decomposition of the V-matrix  ... done


Timings:
 Total evaluation time                   ...   0.327 sec (  0.005 min)
 One electron matrix time                ...   0.019 sec (  0.000 min) =  5.7%
 Schwartz matrix evaluation time         ...   0.122 sec (  0.002 min) = 37.3%
 Two index repulsion integral time       ...   0.005 sec (  0.000 min) =  1.5%
 Cholesky decomposition of V             ...   0.163 sec (  0.003 min) = 49.9%
 Three index repulsion integral time     ...   0.000 sec (  0.000 min) =  0.0%

[1631208315.576391] [comp0810:207924:0]            sys.c:618  UCX  ERROR shmget(size=2097152 flags=0xfb0) for mm_recv_desc failed: Operation not permitted, please check shared memory limits by 'ipcs -l'
[1631208315.581789] [comp0810:207926:0]            sys.c:618  UCX  ERROR shmget(size=2097152 flags=0xfb0) for mm_recv_desc failed: Operation not permitted, please check shared memory limits by 'ipcs -l'
[1631208315.581572] [comp0810:207932:0]            sys.c:618  UCX  ERROR shmget(size=2097152 flags=0xfb0) for mm_recv_desc failed: Operation not permitted, please check shared memory limits by 'ipcs -l'
[1631208315.584423] [comp0810:207928:0]            sys.c:618  UCX  ERROR shmget(size=2097152 flags=0xfb0) for mm_recv_desc failed: Operation not permitted, please check shared memory limits by 'ipcs -l'
[1631208315.604440] [comp0810:207924:0]            sys.c:618  UCX  ERROR shmget(size=2097152 flags=0xb80) for ucp_am_bufs failed: Operation not permitted, please check shared memory limits by 'ipcs -l'


           ************************************************************
           *        Program running with 4 parallel MPI-processes     *
           *              working on a common directory               *
           ************************************************************
-------------------------------------------------------------------------------
                                 ORCA SCF
-------------------------------------------------------------------------------

------------
SCF SETTINGS
------------
Hamiltonian:
 Density Functional     Method          .... DFT(GTOs)
 Exchange Functional    Exchange        .... PBE
   PBE kappa parameter   XKappa         ....  0.804000
   PBE mue parameter    XMuePBE         ....  0.219520
 Correlation Functional Correlation     .... PBE
   PBE beta parameter  CBetaPBE         ....  0.066725
 LDA part of GGA corr.  LDAOpt          .... PW91-LDA
 Gradients option       PostSCFGGA      .... off
 Hybrid DFT is turned on
   Fraction HF Exchange ScalHFX         ....  0.250000
   Scaling of DF-GGA-X  ScalDFX         ....  0.750000
   Scaling of DF-GGA-C  ScalDFC         ....  1.000000
   Scaling of DF-LDA-C  ScalLDAC        ....  1.000000
   Perturbative correction              ....  0.000000
   Density functional embedding theory  .... OFF
   NL short-range parameter             ....  6.900000
 RI-approximation to the Coulomb term is turned on
   Number of auxiliary basis functions  .... 482
   RIJ-COSX (HFX calculated with COS-X)).... on


General Settings:
 Integral files         IntName         .... manual_331
 Hartree-Fock type      HFTyp           .... RHF
 Total Charge           Charge          ....   -1
 Multiplicity           Mult            ....    1
 Number of Electrons    NEL             ....  112
 Basis Dimension        Dim             ....  189
 Nuclear Repulsion      ENuc            ....    766.7892875321 Eh

Convergence Acceleration:
 DIIS                   CNVDIIS         .... on
   Start iteration      DIISMaxIt       ....    12
   Startup error        DIISStart       ....  0.200000
   # of expansion vecs  DIISMaxEq       ....     5
   Bias factor          DIISBfac        ....   1.050
   Max. coefficient     DIISMaxC        ....  10.000
 Newton-Raphson         CNVNR           .... off
 SOSCF                  CNVSOSCF        .... on
   Start iteration      SOSCFMaxIt      ....   150
   Startup grad/error   SOSCFStart      ....  0.003300
 Level Shifting         CNVShift        .... on
   Level shift para.    LevelShift      ....    0.2500
   Turn off err/grad.   ShiftErr        ....    0.0010
 Zerner damping         CNVZerner       .... off
 Static damping         CNVDamp         .... on
   Fraction old density DampFac         ....    0.7000
   Max. Damping (<1)    DampMax         ....    0.9800
   Min. Damping (>=0)   DampMin         ....    0.0000
   Turn off err/grad.   DampErr         ....    0.1000
 Fernandez-Rico         CNVRico         .... off

SCF Procedure:
 Maximum # iterations   MaxIter         ....   250
 SCF integral mode      SCFMode         .... Direct
   Integral package                     .... LIBINT
 Reset frequency        DirectResetFreq ....    20
 Integral Threshold     Thresh          ....  2.500e-11 Eh
 Primitive CutOff       TCut            ....  2.500e-12 Eh

Convergence Tolerance:
 Convergence Check Mode ConvCheckMode   .... Total+1el-Energy
 Convergence forced     ConvForced      .... 0
 Energy Change          TolE            ....  1.000e-08 Eh
 1-El. energy change                    ....  1.000e-05 Eh
 Orbital Gradient       TolG            ....  1.000e-05
 Orbital Rotation angle TolX            ....  1.000e-05
 DIIS Error             TolErr          ....  5.000e-07


Diagonalization of the overlap matrix:
[1631208315.604867] [comp0810:207932:0]            sys.c:618  UCX  ERROR shmget(size=2097152 flags=0xb80) for ucp_am_bufs failed: Operation not permitted, please check shared memory limits by 'ipcs -l'
[1631208315.604857] [comp0810:207926:0]            sys.c:618  UCX  ERROR shmget(size=2097152 flags=0xb80) for ucp_am_bufs failed: Operation not permitted, please check shared memory limits by 'ipcs -l'
[1631208315.604453] [comp0810:207928:0]            sys.c:618  UCX  ERROR shmget(size=2097152 flags=0xb80) for ucp_am_bufs failed: Operation not permitted, please check shared memory limits by 'ipcs -l'
Smallest eigenvalue                        ... 1.410e-03
Time for diagonalization                   ...    0.162 sec
Threshold for overlap eigenvalues          ... 1.000e-08
Number of eigenvalues below threshold      ... 0
Time for construction of square roots      ...    0.002 sec
Total time needed                          ...    0.164 sec

-------------------
DFT GRID GENERATION
-------------------

General Integration Accuracy     IntAcc      ...  4.340
Radial Grid Type                 RadialGrid  ... Gauss-Chebyshev
Angular Grid (max. acc.)         AngularGrid ... Lebedev-110
Angular grid pruning method      GridPruning ... 3 (G Style)
Weight generation scheme         WeightScheme... Becke
Basis function cutoff            BFCut       ...    1.0000e-11
Integration weight cutoff        WCut        ...    1.0000e-14
Grids for H and He will be reduced by one unit

# of grid points (after initial pruning)     ...  22794 (   0.0 sec)
# of grid points (after weights+screening)   ...  21041 (   0.0 sec)
nearest neighbour list constructed           ...    0.0 sec
Grid point re-assignment to atoms done       ...    0.0 sec
Grid point division into batches done        ...    0.0 sec
Reduced shell lists constructed in    0.1 sec

Total number of grid points                  ...    21041
Total number of batches                      ...      339
Average number of points per batch           ...       62
Average number of grid points per atom       ...     1169
Average number of shells per batch           ...    65.43 (75.21%)
Average number of basis functions per batch  ...   137.83 (72.92%)
Average number of large shells per batch     ...    54.41 (83.15%)
Average number of large basis fcns per batch ...   110.50 (80.17%)
Maximum spatial batch extension              ...  22.78, 21.09, 15.91 au
Average spatial batch extension              ...   0.66,  0.62,  0.59 au

Time for grid setup =    0.085 sec

------------------------------
INITIAL GUESS: MODEL POTENTIAL
------------------------------
Loading Hartree-Fock densities                     ... done
Calculating cut-offs                               ... done
Setting up the integral package                    ... done
Initializing the effective Hamiltonian             ... done
Starting the Coulomb interaction                   ... done (   0.0 sec)
Reading the grid                                   ... done
Mapping shells                                     ... done
Starting the XC term evaluation                    ... done (   0.1 sec)
  promolecular density results
     # of electrons  =    111.000420910
     EX              =   -207.305607763
     EC              =     -4.759675708
     EX+EC           =   -212.065283472
Transforming the Hamiltonian                       ... done (   0.0 sec)
Diagonalizing the Hamiltonian                      ... done (   0.0 sec)
Back transforming the eigenvectors                 ... done (   0.0 sec)
Now organizing SCF variables                       ... done
                      ------------------
                      INITIAL GUESS DONE (   0.3 sec)
                      ------------------
--------------------
COSX GRID GENERATION
--------------------

General Integration Accuracy     IntAcc      ...  3.340
Radial Grid Type                 RadialGrid  ... Gauss-Chebyshev
Angular Grid (max. acc.)         AngularGrid ... Lebedev-50
Angular grid pruning method      GridPruning ... 3 (G Style)
Weight generation scheme         WeightScheme... Becke
Basis function cutoff            BFCut       ...    1.0000e-11
Integration weight cutoff        WCut        ...    1.0000e-14
Grids for H and He will be reduced by one unit

# of grid points (after initial pruning)     ...   8504 (   0.0 sec)
# of grid points (after weights+screening)   ...   7848 (   0.0 sec)
nearest neighbour list constructed           ...    0.0 sec
Grid point re-assignment to atoms done       ...    0.0 sec
Grid point division into batches done        ...    0.0 sec
Reduced shell lists constructed in    0.0 sec

Total number of grid points                  ...     7848
Total number of batches                      ...      130
Average number of points per batch           ...       60
Average number of grid points per atom       ...      436
Average number of shells per batch           ...    66.76 (76.74%)
Average number of basis functions per batch  ...   140.82 (74.51%)
Average number of large shells per batch     ...    57.15 (85.59%)
Average number of large basis fcns per batch ...   117.44 (83.40%)
Maximum spatial batch extension              ...  20.23, 15.44, 14.37 au
Average spatial batch extension              ...   0.80,  0.77,  0.80 au

Overlap Fitting                  UseSFitting ... on
Constructing numerical overlap ... done (      0.0 sec)
Inverting numerical overlap    ... done (      0.0 sec)
Obtaining analytic overlap     ... done (      0.0 sec)
Final contraction and storage  ... done (      0.0 sec)


General Integration Accuracy     IntAcc      ...  3.670
Radial Grid Type                 RadialGrid  ... Gauss-Chebyshev
Angular Grid (max. acc.)         AngularGrid ... Lebedev-50
Angular grid pruning method      GridPruning ... 3 (G Style)
Weight generation scheme         WeightScheme... Becke
Basis function cutoff            BFCut       ...    1.0000e-11
Integration weight cutoff        WCut        ...    1.0000e-14
Grids for H and He will be reduced by one unit

# of grid points (after initial pruning)     ...  10738 (   0.0 sec)
# of grid points (after weights+screening)   ...   9880 (   0.0 sec)
nearest neighbour list constructed           ...    0.0 sec
Grid point re-assignment to atoms done       ...    0.0 sec
Grid point division into batches done        ...    0.0 sec
Reduced shell lists constructed in    0.0 sec

Total number of grid points                  ...     9880
Total number of batches                      ...      163
Average number of points per batch           ...       60
Average number of grid points per atom       ...      549
Average number of shells per batch           ...    67.05 (77.07%)
Average number of basis functions per batch  ...   141.90 (75.08%)
Average number of large shells per batch     ...    56.88 (84.84%)
Average number of large basis fcns per batch ...   115.83 (81.63%)
Maximum spatial batch extension              ...  21.76, 19.29, 14.87 au
Average spatial batch extension              ...   0.73,  0.72,  0.71 au

Overlap Fitting                  UseSFitting ... on
Constructing numerical overlap ... done (      0.0 sec)
Inverting numerical overlap    ... done (      0.0 sec)
Obtaining analytic overlap     ... done (      0.0 sec)
Final contraction and storage  ... done (      0.0 sec)


General Integration Accuracy     IntAcc      ...  4.010
Radial Grid Type                 RadialGrid  ... Gauss-Chebyshev
Angular Grid (max. acc.)         AngularGrid ... Lebedev-110
Angular grid pruning method      GridPruning ... 3 (G Style)
Weight generation scheme         WeightScheme... Becke
Basis function cutoff            BFCut       ...    1.0000e-11
Integration weight cutoff        WCut        ...    1.0000e-14
Grids for H and He will be reduced by one unit

# of grid points (after initial pruning)     ...  19852 (   0.0 sec)
# of grid points (after weights+screening)   ...  18380 (   0.0 sec)
nearest neighbour list constructed           ...    0.0 sec
Grid point re-assignment to atoms done       ...    0.0 sec
Grid point division into batches done        ...    0.0 sec
Reduced shell lists constructed in    0.0 sec

Total number of grid points                  ...    18380
Total number of batches                      ...      296
Average number of points per batch           ...       62
Average number of grid points per atom       ...     1021
Average number of shells per batch           ...    65.81 (75.65%)
Average number of basis functions per batch  ...   139.09 (73.59%)
Average number of large shells per batch     ...    55.17 (83.83%)
Average number of large basis fcns per batch ...   112.59 (80.94%)
Maximum spatial batch extension              ...  22.13, 18.13, 15.93 au
Average spatial batch extension              ...   0.69,  0.67,  0.64 au

Overlap Fitting                  UseSFitting ... on
Constructing numerical overlap ... done (      0.0 sec)
Inverting numerical overlap    ... done (      0.0 sec)
Obtaining analytic overlap     ... done (      0.0 sec)
Final contraction and storage  ... done (      0.0 sec)

Time for X-Grid setup             =    0.242 sec

--------------------
CPCM SOLVATION MODEL
--------------------
CPCM parameters:
  Epsilon                                         ...      20.7000
  Refrac                                          ...       1.3590
  Rsolv                                           ...       1.3000
  Surface type                                    ...    GEPOL SES
  Epsilon function type                           ...         CPCM
Radii:
 Radius for C  used is    3.7795 Bohr (=   2.0000 Ang.)
 Radius for Br used is    4.0818 Bohr (=   2.1600 Ang.)
 Radius for H  used is    2.4566 Bohr (=   1.3000 Ang.)
Calculating surface                               ...        done! (  0.0s)
GEPOL surface points                              ...          663
GEPOL Volume                                      ...    1256.1657
GEPOL Surface-area                                ...     663.8055
Calculating surface distance matrix               ...        done! (  0.0s)
Performing Cholesky decomposition & store         ...        done! (  0.0s)
Overall time for CPCM initialization              ...                 0.1s
--------------
SCF ITERATIONS
--------------
ITER       Energy         Delta-E        Max-DP      RMS-DP      [F,P]     Damp
               ***  Starting incremental Fock matrix formation  ***
  0  -5343.8241800966   0.000000000000 0.07357585  0.00187781  0.1530776 0.7000
  1  -5343.9051053727  -0.080925276018 0.05950293  0.00141009  0.0813239 0.7000
                               ***Turning on DIIS***
  2  -5343.9410792728  -0.035973900099 0.13240010  0.00266228  0.0324719 0.0000
  3  -5343.9927712330  -0.051691960242 0.03316162  0.00089593  0.0442107 0.0000
  4  -5344.0062256050  -0.013454372038 0.01270828  0.00027319  0.0075518 0.0000
                      *** Initiating the SOSCF procedure ***
                           *** Shutting down DIIS ***
                      *** Re-Reading the Fockian *** 
                      *** Removing any level shift *** 
ITER      Energy       Delta-E        Grad      Rot      Max-DP    RMS-DP
  5  -5344.00679697  -0.0005713612  0.000989  0.000989  0.002617  0.000087
               *** Restarting incremental Fock matrix formation ***
  6  -5344.00682949  -0.0000325287  0.000460  0.000996  0.001241  0.000055
  7  -5344.00683243  -0.0000029354  0.000286  0.000210  0.000776  0.000016
  8  -5344.00683579  -0.0000033637  0.000038  0.000140  0.000176  0.000005
  9  -5344.00683573   0.0000000687  0.000048  0.000077  0.000121  0.000002
 10  -5344.00683579  -0.0000000623  0.000008  0.000021  0.000044  0.000001
 11  -5344.00683582  -0.0000000359  0.000008  0.000007  0.000022  0.000000
                  ***Gradient check signals convergence***
              ***Rediagonalizing the Fockian in SOSCF/NRSCF***

               *****************************************************
               *                     SUCCESS                       *
               *           SCF CONVERGED AFTER  12 CYCLES          *
               *****************************************************

Setting up the final grid:

General Integration Accuracy     IntAcc      ...  4.670
Radial Grid Type                 RadialGrid  ... Gauss-Chebyshev
Angular Grid (max. acc.)         AngularGrid ... Lebedev-302
Angular grid pruning method      GridPruning ... 3 (G Style)
Weight generation scheme         WeightScheme... Becke
Basis function cutoff            BFCut       ...    1.0000e-11
Integration weight cutoff        WCut        ...    1.0000e-14
Grids for H and He will be reduced by one unit

# of grid points (after initial pruning)     ...  87626 (   0.0 sec)
# of grid points (after weights+screening)   ...  79623 (   0.1 sec)
nearest neighbour list constructed           ...    0.0 sec
Grid point re-assignment to atoms done       ...    0.0 sec
Grid point division into batches done        ...    0.3 sec
Reduced shell lists constructed in    0.4 sec

Total number of grid points                  ...    79623
Total number of batches                      ...     1253
Average number of points per batch           ...       63
Average number of grid points per atom       ...     4424
Average number of shells per batch           ...    62.53 (71.87%)
Average number of basis functions per batch  ...   130.77 (69.19%)
Average number of large shells per batch     ...    50.65 (81.00%)
Average number of large basis fcns per batch ...   102.09 (78.06%)
Maximum spatial batch extension              ...  17.35, 13.72, 14.30 au
Average spatial batch extension              ...   0.45,  0.44,  0.43 au

Final grid set up in    0.5 sec
Final integration                            ... done (   0.3 sec)
Change in XC energy                          ...     0.000752302
Integrated number of electrons               ...   112.000131346
Previous integrated no of electrons          ...   112.004220442
Old exchange energy                            =    -52.293404395 Eh
New exchange energy                            =    -52.292827419 Eh
Exchange energy change after final integration =      0.000576976 Eh
Total energy after final integration           =  -5344.005506484 Eh
Final COS-X integration done in                =     1.748 sec

----------------
TOTAL SCF ENERGY
----------------

Total Energy       :        -5344.00550648 Eh         -145417.78273 eV

Components:
Nuclear Repulsion  :          766.78928753 Eh           20865.39729 eV
Electronic Energy  :        -6110.79479402 Eh         -166283.18002 eV
One Electron Energy:        -8979.11894065 Eh         -244334.24809 eV
Two Electron Energy:         2868.32414664 Eh           78051.06807 eV
CPCM Dielectric    :           -0.08334625 Eh              -2.26797 eV

Virial components:
Potential Energy   :       -10680.48185331 Eh         -290630.68661 eV
Kinetic Energy     :         5336.47634682 Eh          145212.90388 eV
Virial Ratio       :            2.00141089


DFT components:
N(Alpha)           :       56.000065672814 electrons
N(Beta)            :       56.000065672814 electrons
N(Total)           :      112.000131345627 electrons
E(X)               :     -156.195447770329 Eh       
E(C)               :       -4.805793168502 Eh       
E(XC)              :     -161.001240938830 Eh       
DFET-embed. en.    :        0.000000000000 Eh       
CPCM Solvation Model Properties:
Surface-charge          :            0.97243595
Charge-correction       :           -0.00360085 Eh              -0.09798 eV
Free-energy (cav+disp)  :            0.00410880 Eh               0.11181 eV
Corrected G(solv)       :        -5344.00499854 Eh         -145417.76891 eV

---------------
SCF CONVERGENCE
---------------

  Last Energy change         ...    6.0744e-08  Tolerance :   1.0000e-08
  Last MAX-Density change    ...    3.9968e-15  Tolerance :   1.0000e-07
  Last RMS-Density change    ...    7.5419e-17  Tolerance :   5.0000e-09
  Last Orbital Gradient      ...    6.0951e-07  Tolerance :   1.0000e-05
  Last Orbital Rotation      ...    8.6031e-07  Tolerance :   1.0000e-05

             **** THE GBW FILE WAS UPDATED (manual_331.gbw) ****
             **** DENSITY FILE WAS UPDATED (manual_331.scfp) ****
             **** ENERGY FILE WAS UPDATED (manual_331.en.tmp) ****
             **** THE GBW FILE WAS UPDATED (manual_331.gbw) ****
             **** DENSITY FILE WAS UPDATED (manual_331.scfp) ****
----------------
ORBITAL ENERGIES
----------------

  NO   OCC          E(Eh)            E(eV) 
   0   2.0000    -483.105328    -13145.9643 
   1   2.0000    -483.104211    -13145.9339 
   2   2.0000     -62.540661     -1701.8179 
   3   2.0000     -62.539568     -1701.7882 
   4   2.0000     -56.329247     -1532.7967 
   5   2.0000     -56.328045     -1532.7640 
   6   2.0000     -56.328005     -1532.7629 
   7   2.0000     -56.327993     -1532.7626 
   8   2.0000     -56.327065     -1532.7374 
   9   2.0000     -56.326977     -1532.7350 
  10   2.0000     -10.286499      -279.9099 
  11   2.0000     -10.247684      -278.8536 
  12   2.0000     -10.214030      -277.9379 
  13   2.0000     -10.209391      -277.8116 
  14   2.0000     -10.209116      -277.8042 
  15   2.0000      -8.684553      -236.3187 
  16   2.0000      -8.683377      -236.2867 
  17   2.0000      -6.493829      -176.7061 
  18   2.0000      -6.492822      -176.6787 
  19   2.0000      -6.489322      -176.5834 
  20   2.0000      -6.489233      -176.5810 
  21   2.0000      -6.488034      -176.5484 
  22   2.0000      -6.487981      -176.5469 
  23   2.0000      -2.580151       -70.2095 
  24   2.0000      -2.579109       -70.1811 
  25   2.0000      -2.579008       -70.1784 
  26   2.0000      -2.578945       -70.1767 
  27   2.0000      -2.577822       -70.1461 
  28   2.0000      -2.577773       -70.1448 
  29   2.0000      -2.575280       -70.0769 
  30   2.0000      -2.575263       -70.0765 
  31   2.0000      -2.573960       -70.0410 
  32   2.0000      -2.573950       -70.0407 
  33   2.0000      -0.839297       -22.8384 
  34   2.0000      -0.719056       -19.5665 
  35   2.0000      -0.700586       -19.0639 
  36   2.0000      -0.686929       -18.6923 
  37   2.0000      -0.676533       -18.4094 
  38   2.0000      -0.659594       -17.9485 
  39   2.0000      -0.538203       -14.6452 
  40   2.0000      -0.465555       -12.6684 
  41   2.0000      -0.464987       -12.6529 
  42   2.0000      -0.440932       -11.9984 
  43   2.0000      -0.419972       -11.4280 
  44   2.0000      -0.387744       -10.5511 
  45   2.0000      -0.372953       -10.1486 
  46   2.0000      -0.360854        -9.8193 
  47   2.0000      -0.346922        -9.4402 
  48   2.0000      -0.336038        -9.1441 
  49   2.0000      -0.328491        -8.9387 
  50   2.0000      -0.290332        -7.9003 
  51   2.0000      -0.245336        -6.6759 
  52   2.0000      -0.241403        -6.5689 
  53   2.0000      -0.240222        -6.5368 
  54   2.0000      -0.237618        -6.4659 
  55   2.0000      -0.220319        -5.9952 
  56   0.0000      -0.031511        -0.8574 
  57   0.0000       0.076320         2.0768 
  58   0.0000       0.124373         3.3844 
  59   0.0000       0.133399         3.6300 
  60   0.0000       0.135023         3.6742 
  61   0.0000       0.145415         3.9569 
  62   0.0000       0.150516         4.0957 
  63   0.0000       0.158620         4.3163 
  64   0.0000       0.162213         4.4140 
  65   0.0000       0.195299         5.3144 
  66   0.0000       0.198969         5.4142 
  67   0.0000       0.207545         5.6476 
  68   0.0000       0.217825         5.9273 
  69   0.0000       0.241961         6.5841 
  70   0.0000       0.257714         7.0128 
  71   0.0000       0.263785         7.1780 
  72   0.0000       0.377039        10.2597 
  73   0.0000       0.417864        11.3706 
  74   0.0000       0.422510        11.4971 
  75   0.0000       0.422737        11.5032 
  76   0.0000       0.437173        11.8961 
  77   0.0000       0.450211        12.2509 
  78   0.0000       0.478426        13.0186 
  79   0.0000       0.527771        14.3614 
  80   0.0000       0.550120        14.9695 
  81   0.0000       0.550894        14.9906 
  82   0.0000       0.560331        15.2474 
  83   0.0000       0.568047        15.4573 
  84   0.0000       0.577405        15.7120 
  85   0.0000       0.589307        16.0359 
  86   0.0000       0.597332        16.2542 
  87   0.0000       0.599530        16.3140 
  88   0.0000       0.606421        16.5016 
  89   0.0000       0.612326        16.6622 
  90   0.0000       0.627063        17.0633 
  91   0.0000       0.627651        17.0793 
  92   0.0000       0.645863        17.5748 
  93   0.0000       0.653101        17.7718 
  94   0.0000       0.667939        18.1755 
  95   0.0000       0.670398        18.2425 
  96   0.0000       0.676072        18.3969 
  97   0.0000       0.696227        18.9453 
  98   0.0000       0.701869        19.0988 
  99   0.0000       0.717781        19.5318 
 100   0.0000       0.724702        19.7201 
 101   0.0000       0.726109        19.7584 
 102   0.0000       0.729220        19.8431 
 103   0.0000       0.741814        20.1858 
 104   0.0000       0.745488        20.2858 
 105   0.0000       0.755952        20.5705 
 106   0.0000       0.767609        20.8877 
 107   0.0000       0.775759        21.1095 
 108   0.0000       0.778542        21.1852 
 109   0.0000       0.788434        21.4544 
 110   0.0000       0.804337        21.8871 
 111   0.0000       0.830478        22.5985 
 112   0.0000       0.877319        23.8731 
 113   0.0000       0.929735        25.2994 
 114   0.0000       0.954693        25.9785 
 115   0.0000       0.979114        26.6431 
 116   0.0000       1.028540        27.9880 
 117   0.0000       1.093234        29.7484 
 118   0.0000       1.102744        30.0072 
 119   0.0000       1.188604        32.3436 
 120   0.0000       1.225575        33.3496 
 121   0.0000       1.275544        34.7093 
 122   0.0000       1.287162        35.0255 
 123   0.0000       1.300980        35.4015 
 124   0.0000       1.332450        36.2578 
 125   0.0000       1.426883        38.8275 
 126   0.0000       1.517265        41.2869 
 127   0.0000       1.554645        42.3040 
 128   0.0000       1.565522        42.6000 
 129   0.0000       1.570832        42.7445 
 130   0.0000       1.579360        42.9766 
 131   0.0000       1.593433        43.3595 
 132   0.0000       1.665683        45.3255 
 133   0.0000       1.704853        46.3914 
 134   0.0000       1.725775        46.9607 
 135   0.0000       1.778433        48.3936 
 136   0.0000       1.781560        48.4787 
 137   0.0000       1.812256        49.3140 
 138   0.0000       1.827056        49.7167 
 139   0.0000       1.849209        50.3195 
 140   0.0000       1.859370        50.5960 
 141   0.0000       1.863586        50.7108 
 142   0.0000       1.871406        50.9236 
 143   0.0000       1.901418        51.7402 
 144   0.0000       1.936071        52.6832 
 145   0.0000       1.939458        52.7753 
 146   0.0000       1.965845        53.4934 
 147   0.0000       1.998734        54.3883 
 148   0.0000       2.014179        54.8086 
 149   0.0000       2.030707        55.2583 
 150   0.0000       2.043338        55.6021 
 151   0.0000       2.097112        57.0653 
 152   0.0000       2.185937        59.4824 
 153   0.0000       2.219336        60.3912 
 154   0.0000       2.243078        61.0373 
 155   0.0000       2.271351        61.8066 
 156   0.0000       2.293631        62.4129 
 157   0.0000       2.314116        62.9703 
 158   0.0000       2.368199        64.4420 
 159   0.0000       2.432626        66.1951 
 160   0.0000       2.437167        66.3187 
 161   0.0000       2.469021        67.1855 
 162   0.0000       2.498112        67.9771 
 163   0.0000       2.565602        69.8136 
 164   0.0000       2.613071        71.1053 
 165   0.0000       2.657671        72.3189 
 166   0.0000       2.665781        72.5396 
 167   0.0000       2.700942        73.4964 
 168   0.0000       2.857216        77.7488 
 169   0.0000       2.861165        77.8562 
 170   0.0000       2.865767        77.9815 
 171   0.0000       2.930330        79.7383 
 172   0.0000       2.951773        80.3218 
 173   0.0000       2.959513        80.5324 
 174   0.0000       2.991410        81.4004 
 175   0.0000       2.995044        81.4993 
 176   0.0000       3.024478        82.3002 
 177   0.0000       3.100773        84.3763 
 178   0.0000       3.154360        85.8345 
 179   0.0000       3.529113        96.0320 
 180   0.0000       3.536339        96.2287 
 181   0.0000       3.547260        96.5259 
 182   0.0000       3.551375        96.6378 
 183   0.0000       3.574496        97.2670 
 184   0.0000       3.594270        97.8051 
 185   0.0000       3.600059        97.9626 
 186   0.0000       3.643241        99.1376 
 187   0.0000       3.719684       101.2178 
 188   0.0000       3.818610       103.9097 

                    ********************************
                    * MULLIKEN POPULATION ANALYSIS *
                    ********************************

-----------------------
MULLIKEN ATOMIC CHARGES
-----------------------
   0 C :    0.036063
   1 C :   -0.422119
   2 C :    0.009729
   3 C :    0.003748
   4 C :    0.096726
   5 Br:   -0.648892
   6 H :    0.040614
   7 H :    0.037731
   8 H :    0.037133
   9 H :    0.039685
  10 H :    0.035767
  11 H :    0.032016
  12 H :    0.032686
  13 H :    0.043000
  14 H :    0.037732
  15 H :    0.108354
  16 H :    0.106884
  17 Br:   -0.626858
Sum of atomic charges:   -1.0000000

--------------------------------
MULLIKEN REDUCED ORBITAL CHARGES
--------------------------------
  0 C s       :     3.005341  s :     3.005341
      pz      :     0.995660  p :     2.930964
      px      :     1.011214
      py      :     0.924090
      dz2     :     0.003310  d :     0.027632
      dxz     :     0.007450
      dyz     :     0.006103
      dx2y2   :     0.005038
      dxy     :     0.005730
  1 C s       :     3.282166  s :     3.282166
      pz      :     1.026090  p :     3.087608
      px      :     1.036496
      py      :     1.025022
      dz2     :     0.008192  d :     0.052346
      dxz     :     0.012142
      dyz     :     0.011689
      dx2y2   :     0.010469
      dxy     :     0.009854
  2 C s       :     3.017899  s :     3.017899
      pz      :     0.969373  p :     2.945641
      px      :     0.953959
      py      :     1.022309
      dz2     :     0.003763  d :     0.026731
      dxz     :     0.006741
      dyz     :     0.006388
      dx2y2   :     0.004870
      dxy     :     0.004969
  3 C s       :     3.017949  s :     3.017949
      pz      :     0.995929  p :     2.951579
      px      :     0.942570
      py      :     1.013080
      dz2     :     0.002671  d :     0.026723
      dxz     :     0.008038
      dyz     :     0.005669
      dx2y2   :     0.006524
      dxy     :     0.003822
  4 C s       :     3.192821  s :     3.192821
      pz      :     0.849078  p :     2.682987
      px      :     1.016992
      py      :     0.816917
      dz2     :     0.005040  d :     0.027466
      dxz     :     0.005353
      dyz     :     0.006598
      dx2y2   :     0.006091
      dxy     :     0.004384
  5 Brs       :     7.989248  s :     7.989248
      pz      :     5.736725  p :    17.650190
      px      :     5.981912
      py      :     5.931553
      dz2     :     2.002342  d :    10.009454
      dxz     :     2.001455
      dyz     :     2.004434
      dx2y2   :     2.000591
      dxy     :     2.000631
  6 H s       :     0.935488  s :     0.935488
      pz      :     0.010476  p :     0.023899
      px      :     0.009626
      py      :     0.003797
  7 H s       :     0.938702  s :     0.938702
      pz      :     0.011011  p :     0.023567
      px      :     0.006154
      py      :     0.006402
  8 H s       :     0.939121  s :     0.939121
      pz      :     0.006973  p :     0.023746
      px      :     0.010710
      py      :     0.006063
  9 H s       :     0.936721  s :     0.936721
      pz      :     0.005826  p :     0.023594
      px      :     0.010645
      py      :     0.007122
 10 H s       :     0.940398  s :     0.940398
      pz      :     0.010438  p :     0.023835
      px      :     0.005242
      py      :     0.008156
 11 H s       :     0.942647  s :     0.942647
      pz      :     0.005260  p :     0.025336
      px      :     0.005000
      py      :     0.015076
 12 H s       :     0.942068  s :     0.942068
      pz      :     0.005667  p :     0.025246
      px      :     0.005194
      py      :     0.014385
 13 H s       :     0.933401  s :     0.933401
      pz      :     0.009010  p :     0.023599
      px      :     0.009515
      py      :     0.005074
 14 H s       :     0.938613  s :     0.938613
      pz      :     0.010516  p :     0.023655
      px      :     0.005350
      py      :     0.007789
 15 H s       :     0.866562  s :     0.866562
      pz      :     0.007089  p :     0.025084
      px      :     0.008690
      py      :     0.009304
 16 H s       :     0.868045  s :     0.868045
      pz      :     0.004476  p :     0.025071
      px      :     0.016011
      py      :     0.004584
 17 Brs       :     7.988513  s :     7.988513
      pz      :     5.919229  p :    17.626580
      px      :     5.954173
      py      :     5.753178
      dz2     :     2.000599  d :    10.011765
      dxz     :     2.001215
      dyz     :     2.005101
      dx2y2   :     2.002740
      dxy     :     2.002110


                     *******************************
                     * LOEWDIN POPULATION ANALYSIS *
                     *******************************

----------------------
LOEWDIN ATOMIC CHARGES
----------------------
   0 C :   -0.052539
   1 C :   -0.086811
   2 C :   -0.058429
   3 C :   -0.059400
   4 C :    0.068821
   5 Br:   -0.543991
   6 H :    0.020119
   7 H :    0.026504
   8 H :    0.020177
   9 H :    0.027842
  10 H :    0.026477
  11 H :    0.009094
  12 H :    0.009806
  13 H :    0.028599
  14 H :    0.026647
  15 H :    0.022319
  16 H :    0.022041
  17 Br:   -0.507276

-------------------------------
LOEWDIN REDUCED ORBITAL CHARGES
-------------------------------
  0 C s       :     2.850389  s :     2.850389
      pz      :     1.065552  p :     3.130333
      px      :     1.065977
      py      :     0.998804
      dz2     :     0.008633  d :     0.071818
      dxz     :     0.019471
      dyz     :     0.015543
      dx2y2   :     0.013737
      dxy     :     0.014434
  1 C s       :     2.851179  s :     2.851179
      pz      :     1.030291  p :     3.116960
      px      :     1.045904
      py      :     1.040764
      dz2     :     0.016870  d :     0.118672
      dxz     :     0.029976
      dyz     :     0.027312
      dx2y2   :     0.023529
      dxy     :     0.020986
  2 C s       :     2.848531  s :     2.848531
      pz      :     1.035794  p :     3.139397
      px      :     1.027769
      py      :     1.075834
      dz2     :     0.009300  d :     0.070501
      dxz     :     0.019388
      dyz     :     0.016015
      dx2y2   :     0.013246
      dxy     :     0.012551
  3 C s       :     2.848679  s :     2.848679
      pz      :     1.054508  p :     3.140403
      px      :     1.019189
      py      :     1.066706
      dz2     :     0.006857  d :     0.070318
      dxz     :     0.021285
      dyz     :     0.014736
      dx2y2   :     0.017078
      dxy     :     0.010361
  4 C s       :     2.982047  s :     2.982047
      pz      :     0.910433  p :     2.884544
      px      :     1.093945
      py      :     0.880167
      dz2     :     0.011701  d :     0.064587
      dxz     :     0.012636
      dyz     :     0.015034
      dx2y2   :     0.014390
      dxy     :     0.010826
  5 Brs       :     7.952772  s :     7.952772
      pz      :     5.699265  p :    17.581195
      px      :     5.974945
      py      :     5.906985
      dz2     :     2.002463  d :    10.010024
      dxz     :     2.001349
      dyz     :     2.004945
      dx2y2   :     2.000654
      dxy     :     2.000614
  6 H s       :     0.911731  s :     0.911731
      pz      :     0.028231  p :     0.068151
      px      :     0.027465
      py      :     0.012455
  7 H s       :     0.907317  s :     0.907317
      pz      :     0.030847  p :     0.066179
      px      :     0.015899
      py      :     0.019432
  8 H s       :     0.912025  s :     0.912025
      pz      :     0.017741  p :     0.067798
      px      :     0.030628
      py      :     0.019429
  9 H s       :     0.905693  s :     0.905693
      pz      :     0.016536  p :     0.066464
      px      :     0.031082
      py      :     0.018846
 10 H s       :     0.906906  s :     0.906906
      pz      :     0.030026  p :     0.066616
      px      :     0.014830
      py      :     0.021760
 11 H s       :     0.917054  s :     0.917054
      pz      :     0.015631  p :     0.073852
      px      :     0.014770
      py      :     0.043450
 12 H s       :     0.916543  s :     0.916543
      pz      :     0.015555  p :     0.073651
      px      :     0.015825
      py      :     0.042271
 13 H s       :     0.904787  s :     0.904787
      pz      :     0.024871  p :     0.066613
      px      :     0.028369
      py      :     0.013374
 14 H s       :     0.906773  s :     0.906773
      pz      :     0.029305  p :     0.066581
      px      :     0.015700
      py      :     0.021576
 15 H s       :     0.896960  s :     0.896960
      pz      :     0.023418  p :     0.080721
      px      :     0.027059
      py      :     0.030244
 16 H s       :     0.897279  s :     0.897279
      pz      :     0.015172  p :     0.080680
      px      :     0.050739
      py      :     0.014770
 17 Brs       :     7.945246  s :     7.945246
      pz      :     5.895375  p :    17.549367
      px      :     5.943376
      py      :     5.710616
      dz2     :     2.000648  d :    10.012663
      dxz     :     2.001333
      dyz     :     2.005750
      dx2y2   :     2.002902
      dxy     :     2.002030


                      *****************************
                      * MAYER POPULATION ANALYSIS *
                      *****************************

  NA   - Mulliken gross atomic population
  ZA   - Total nuclear charge
  QA   - Mulliken gross atomic charge
  VA   - Mayer's total valence
  BVA  - Mayer's bonded valence
  FA   - Mayer's free valence

  ATOM       NA         ZA         QA         VA         BVA        FA
  0 C      5.9639     6.0000     0.0361     3.8805     3.8805     0.0000
  1 C      6.4221     6.0000    -0.4221     4.2141     4.2141    -0.0000
  2 C      5.9903     6.0000     0.0097     3.8588     3.8588     0.0000
  3 C      5.9963     6.0000     0.0037     3.8599     3.8599    -0.0000
  4 C      5.9033     6.0000     0.0967     3.7117     3.7117     0.0000
  5 Br    35.6489    35.0000    -0.6489     0.6374     0.6374     0.0000
  6 H      0.9594     1.0000     0.0406     1.0094     1.0094    -0.0000
  7 H      0.9623     1.0000     0.0377     0.9900     0.9900    -0.0000
  8 H      0.9629     1.0000     0.0371     1.0090     1.0090     0.0000
  9 H      0.9603     1.0000     0.0397     0.9901     0.9901     0.0000
 10 H      0.9642     1.0000     0.0358     0.9940     0.9940     0.0000
 11 H      0.9680     1.0000     0.0320     1.0341     1.0341     0.0000
 12 H      0.9673     1.0000     0.0327     1.0352     1.0352     0.0000
 13 H      0.9570     1.0000     0.0430     0.9896     0.9896    -0.0000
 14 H      0.9623     1.0000     0.0377     0.9929     0.9929     0.0000
 15 H      0.8916     1.0000     0.1084     1.0004     1.0004    -0.0000
 16 H      0.8931     1.0000     0.1069     1.0010     1.0010     0.0000
 17 Br    35.6269    35.0000    -0.6269     0.6842     0.6842     0.0000

  Mayer bond orders larger than 0.100000
B(  0-C ,  1-C ) :   1.0389 B(  0-C ,  6-H ) :   0.9558 B(  0-C ,  7-H ) :   0.9593 
B(  0-C ,  8-H ) :   0.9544 B(  1-C ,  2-C ) :   1.0233 B(  1-C ,  3-C ) :   1.0252 
B(  1-C ,  4-C ) :   1.0165 B(  2-C ,  9-H ) :   0.9642 B(  2-C , 10-H ) :   0.9653 
B(  2-C , 11-H ) :   0.9513 B(  3-C , 12-H ) :   0.9493 B(  3-C , 13-H ) :   0.9650 
B(  3-C , 14-H ) :   0.9637 B(  4-C ,  5-Br) :   0.4413 B(  4-C , 15-H ) :   0.9412 
B(  4-C , 16-H ) :   0.9419 B(  4-C , 17-Br) :   0.4112 


------------------
HIRSHFELD ANALYSIS
------------------

Total integrated alpha density =     56.002110221
Total integrated beta density  =     56.002110221

  ATOM     CHARGE      SPIN    
   0 C   -0.082539    0.000000
   1 C    0.030089    0.000000
   2 C   -0.082901    0.000000
   3 C   -0.084776    0.000000
   4 C    0.059512    0.000000
   5 Br  -0.561131    0.000000
   6 H    0.014436    0.000000
   7 H    0.024458    0.000000
   8 H    0.015843    0.000000
   9 H    0.025246    0.000000
  10 H    0.024916    0.000000
  11 H    0.004697    0.000000
  12 H    0.005279    0.000000
  13 H    0.025562    0.000000
  14 H    0.024137    0.000000
  15 H    0.034263    0.000000
  16 H    0.034084    0.000000
  17 Br  -0.515395    0.000000

  TOTAL  -1.004220    0.000000

-------
TIMINGS
-------

Total SCF time: 0 days 0 hours 0 min 20 sec 

Total time                  ....      20.337 sec
Sum of individual times     ....      19.964 sec  ( 98.2%)

Fock matrix formation       ....      18.752 sec  ( 92.2%)
  Split-RI-J                ....       2.173 sec  ( 11.6% of F)
  Chain of spheres X        ....      11.905 sec  ( 63.5% of F)
  COS-X 1 center corr.      ....       0.000 sec  (  0.0% of F)
  XC integration            ....       1.174 sec  (  6.3% of F)
    Basis function eval.    ....       0.445 sec  ( 37.9% of XC)
    Density eval.           ....       0.244 sec  ( 20.8% of XC)
    XC-Functional eval.     ....       0.079 sec  (  6.7% of XC)
    XC-Potential eval.      ....       0.341 sec  ( 29.0% of XC)
Diagonalization             ....       0.029 sec  (  0.1%)
Density matrix formation    ....       0.007 sec  (  0.0%)
Population analysis         ....       0.080 sec  (  0.4%)
Initial guess               ....       0.237 sec  (  1.2%)
Orbital Transformation      ....       0.000 sec  (  0.0%)
Orbital Orthonormalization  ....       0.000 sec  (  0.0%)
DIIS solution               ....       0.009 sec  (  0.0%)
SOSCF solution              ....       0.021 sec  (  0.1%)
Grid generation             ....       0.828 sec  (  4.1%)


-------------------------------------------------------------------------------
                          DFT DISPERSION CORRECTION                            
                                                                               
                              DFTD3 V3.1  Rev 1                                
                          USING Becke-Johnson damping                          
-------------------------------------------------------------------------------
The PBE0 functional is recognized
Active option DFTDOPT                   ...         4   

molecular C6(AA) [au] = 4428.032197 


            DFT-D V3
 parameters
 s6 scaling factor         :     1.0000 
 a1 scaling factor         :     0.4145 
 s8 scaling factor         :     1.2177 
 a2 scaling factor         :     4.8593 
 ad hoc parameters k1-k3   :    16.0000     1.3333    -4.0000 

 Edisp/kcal,au: -11.161480542913  -0.017786949542 
 E6   /kcal   :  -6.808909294 
 E8   /kcal   :  -4.352571248 
 % E8         :  38.996361027 

-------------------------   ----------------
Dispersion correction           -0.017786950
-------------------------   ----------------


-------------------------   --------------------
FINAL SINGLE POINT ENERGY     -5344.023293433789
-------------------------   --------------------

[1631208336.897800] [comp0810:208069:0]            sys.c:618  UCX  ERROR shmget(size=2097152 flags=0xfb0) for mm_recv_desc failed: Operation not permitted, please check shared memory limits by 'ipcs -l'
[1631208336.918712] [comp0810:208071:0]            sys.c:618  UCX  ERROR shmget(size=2097152 flags=0xfb0) for mm_recv_desc failed: Operation not permitted, please check shared memory limits by 'ipcs -l'
[1631208336.932057] [comp0810:208072:0]            sys.c:618  UCX  ERROR shmget(size=2097152 flags=0xfb0) for mm_recv_desc failed: Operation not permitted, please check shared memory limits by 'ipcs -l'
[1631208336.936602] [comp0810:208070:0]            sys.c:618  UCX  ERROR shmget(size=2097152 flags=0xfb0) for mm_recv_desc failed: Operation not permitted, please check shared memory limits by 'ipcs -l'
[1631208336.943306] [comp0810:208072:0]            sys.c:618  UCX  ERROR shmget(size=2097152 flags=0xb80) for ucp_am_bufs failed: Operation not permitted, please check shared memory limits by 'ipcs -l'
[1631208336.943613] [comp0810:208071:0]            sys.c:618  UCX  ERROR shmget(size=2097152 flags=0xb80) for ucp_am_bufs failed: Operation not permitted, please check shared memory limits by 'ipcs -l'
[1631208336.943292] [comp0810:208070:0]            sys.c:618  UCX  ERROR shmget(size=2097152 flags=0xb80) for ucp_am_bufs failed: Operation not permitted, please check shared memory limits by 'ipcs -l'
[1631208336.943644] [comp0810:208069:0]            sys.c:618  UCX  ERROR shmget(size=2097152 flags=0xb80) for ucp_am_bufs failed: Operation not permitted, please check shared memory limits by 'ipcs -l'


           ************************************************************
           *        Program running with 4 parallel MPI-processes     *
           *              working on a common directory               *
           ************************************************************
------------------------------------------------------------------------------
                         ORCA SCF GRADIENT CALCULATION
------------------------------------------------------------------------------

Gradient of the Kohn-Sham DFT energy:
Kohn-Sham wavefunction type      ... RKS
Hartree-Fock exchange scaling    ...    0.250
Number of operators              ...    1
Number of atoms                  ...   18
Basis set dimensions             ...  189
Integral neglect threshold       ... 2.5e-11
Integral primitive cutoff        ... 2.5e-12

Nuclear repulsion gradient       ... done
One Electron Gradient            ... done
Pre-screening matrix             ... done
RI-J gradient                    ... done
COSX-gradient                    ... done
Exchange-correlation gradient    ... done
Dispersion correction            ... done

------------------
CARTESIAN GRADIENT
------------------

   1   C   :    0.000144311   -0.000071452   -0.000020260
   2   C   :    0.000583294   -0.001062777    0.000721610
   3   C   :    0.000677689   -0.001957632   -0.000091168
   4   C   :    0.000613681   -0.002159777    0.000157298
   5   C   :   -0.000398873    0.002700916    0.002407281
   6   Br  :    0.000203843   -0.001844932   -0.003327614
   7   H   :    0.000090592   -0.000066138   -0.000098610
   8   H   :    0.000095679   -0.000227740   -0.000147068
   9   H   :    0.000175914   -0.000059119   -0.000206423
  10   H   :    0.000049259   -0.000057751   -0.000165515
  11   H   :   -0.000027836   -0.000232154   -0.000084850
  12   H   :   -0.000280863   -0.001585071    0.001197136
  13   H   :    0.001445574   -0.000946010    0.001004536
  14   H   :    0.000102094   -0.000068124    0.000065934
  15   H   :    0.000120061   -0.000199524    0.000005234
  16   H   :    0.000805877   -0.003430914   -0.002357799
  17   H   :    0.000836440   -0.003439265   -0.002421152
  18   Br  :   -0.003008104    0.012520114    0.002465827

Difference to translation invariance:
           :    0.0022286328   -0.0021873516   -0.0008956019

Norm of the cartesian gradient     ...    0.0159928471
RMS gradient                       ...    0.0021763508
MAX gradient                       ...    0.0125201138

-------
TIMINGS
-------

Total SCF gradient time            ...        4.186 sec

One electron gradient       ....       0.048 sec  (  1.1%)
Prescreening matrices       ....       0.121 sec  (  2.9%)
[...]
     20       0.180799  -0.042233   0.196153   0.269044   0.021235  -0.072366
     21       0.035352   0.031950  -0.149056  -0.205796   0.014863  -0.033033
     22      -0.176602  -0.045017   0.211096   0.292816  -0.021294   0.045240
     23      -0.136056   0.074828  -0.350075  -0.481167   0.036015  -0.076616
     24      -0.117221  -0.047590   0.210445   0.287627   0.037696  -0.049375
     25      -0.013331  -0.028401   0.125356   0.175381   0.022260  -0.031790
     26       0.239379  -0.023254   0.103731   0.142919   0.017143  -0.020728
     27       0.197211   0.454408  -0.118441   0.160443  -0.577834   0.088529
     28      -0.314744   0.254997  -0.066176   0.089785  -0.327919   0.049248
     29      -0.070045   0.249047  -0.063576   0.085933  -0.303743   0.047000
     30      -0.228013  -0.164855   0.043328  -0.054869  -0.183399   0.020214
     31       0.087570   0.292164  -0.076894   0.099708   0.355821  -0.043130
     32       0.136506  -0.399528   0.104983  -0.137228  -0.470963   0.056126
     33       0.346626   0.129215  -0.034273   0.046042   0.069387  -0.016862
     34       0.026532  -0.435098   0.115828  -0.151775  -0.194330   0.049157
     35       0.238989  -0.162505   0.042759  -0.058175  -0.064234   0.017211
     36      -0.200105  -0.043748  -0.089801   0.056953  -0.000106  -0.002377
     37      -0.169728   0.165992   0.341783  -0.222476   0.000865   0.030262
     38       0.314873   0.068446   0.140106  -0.092610  -0.001603  -0.002788
     39       0.015436   0.169741   0.345745  -0.228498  -0.080058  -0.511130
     40      -0.361662   0.023522   0.048703  -0.032306  -0.009935  -0.065664
     41      -0.055485  -0.162060  -0.325868   0.213870   0.072187   0.465235
     42       0.159281   0.073286   0.151377  -0.098301   0.035275   0.229418
     43       0.213791  -0.137606  -0.283737   0.180509  -0.065091  -0.404352
     44       0.081437   0.171191   0.353056  -0.226305   0.079597   0.497054
     45      -0.085380   0.001629  -0.001613   0.006945  -0.001093   0.002736
     46       0.026168   0.000230  -0.000782   0.003381  -0.000472   0.000743
     47      -0.039807  -0.000345   0.000458  -0.003212   0.001066  -0.000368
     48       0.039940  -0.002088   0.001530  -0.007960   0.003380  -0.001607
     49       0.059785   0.000055   0.000426  -0.000660   0.000742  -0.000736
     50      -0.070458   0.000068  -0.000369   0.000342  -0.000587  -0.000428
     51       0.000016   0.000018   0.000025  -0.000010   0.000003  -0.000001
     52      -0.000050   0.000008  -0.000024   0.000005   0.000014  -0.000012
     53      -0.000057  -0.000004   0.000015  -0.000018  -0.000008  -0.000002
                 48         49         50         51         52         53    
      0      -0.006784   0.001404   0.002809   0.088476  -0.000034   0.000077
      1       0.011019   0.000108   0.001399   0.030829   0.000600  -0.000033
      2      -0.089764   0.000663  -0.000396  -0.003624   0.000274  -0.000034
      3      -0.000185  -0.000225   0.000821   0.001403  -0.001094  -0.000161
      4       0.000654   0.001300  -0.001272   0.000365   0.001873  -0.000101
      5      -0.001355  -0.000052  -0.000256  -0.000029  -0.002424   0.000129
      6      -0.005636  -0.018819   0.001390   0.001230   0.000722   0.000097
      7      -0.001120   0.091556  -0.006138  -0.001091   0.000271   0.000080
      8      -0.006138  -0.003017   0.000704   0.001463  -0.000216  -0.000271
      9       0.003537   0.003525   0.044126  -0.001654  -0.000740   0.000233
     10       0.005533  -0.004515  -0.078762   0.003168  -0.000092   0.000036
     11      -0.011488  -0.003949  -0.022928  -0.000006  -0.000022   0.000200
     12       0.000041  -0.000004  -0.000096  -0.000245   0.015777  -0.098306
     13      -0.000452   0.000018  -0.000128   0.000083  -0.040356  -0.023279
     14      -0.000142   0.000156   0.000005   0.000004   0.047047   0.019201
     15      -0.000039   0.000002  -0.000000  -0.000020   0.000004   0.000128
     16       0.000058  -0.000006   0.000005  -0.000024   0.000161   0.000017
     17      -0.000043  -0.000003   0.000005   0.000024   0.000163  -0.000049
     18      -0.457248  -0.002424  -0.016450  -0.424459   0.002665   0.000038
     19      -0.029997  -0.000176  -0.000310  -0.026557  -0.000574  -0.000893
     20       0.427840   0.002974   0.017062   0.425949  -0.002157   0.000419
     21       0.220935  -0.000919   0.000053  -0.021803   0.001387   0.000120
     22      -0.312904   0.001781   0.002265   0.046735  -0.002721  -0.000049
     23       0.505657  -0.005013  -0.000687  -0.072535   0.002199   0.000095
     24       0.321980  -0.012026  -0.019533  -0.609916  -0.003692  -0.000156
     25       0.205038  -0.008342  -0.012347  -0.386403  -0.003178   0.000832
     26       0.146193  -0.006756  -0.010104  -0.312613  -0.001861  -0.000133
     27       0.054859  -0.163558   0.008808  -0.011875  -0.005911   0.001611
     28       0.030844  -0.078494   0.004735  -0.005660  -0.002920   0.001069
     29       0.028025  -0.087456   0.004607  -0.004377  -0.002077  -0.000717
     30       0.015899   0.162140  -0.011915  -0.005425  -0.000467   0.000626
     31      -0.033136  -0.291691   0.022137   0.010695  -0.000968  -0.000083
     32       0.045678   0.408458  -0.031105  -0.013831   0.001645   0.000317
     33      -0.004604   0.227132  -0.016560  -0.002359  -0.000666   0.000208
     34       0.014687  -0.731032   0.048278   0.006879   0.000327   0.000227
     35       0.005217  -0.284136   0.019557   0.002135   0.000970  -0.000880
     36      -0.000223  -0.014845  -0.189636   0.007060   0.000762   0.000249
     37       0.001690   0.055036   0.782263  -0.028473  -0.000133  -0.000296
     38      -0.000115   0.022435   0.325196  -0.011381   0.000507   0.000277
     39      -0.075177  -0.029000  -0.230449   0.001785   0.005436   0.001571
     40      -0.009999  -0.005337  -0.042533  -0.000252   0.001086   0.000115
     41       0.067125   0.027529   0.216670  -0.003100  -0.003739   0.000404
     42       0.035270   0.000032  -0.113879   0.005780   0.001812   0.000445
     43      -0.058872   0.002083   0.209258  -0.011435  -0.001098   0.000092
     44       0.074726  -0.002924  -0.270330   0.013234   0.002261  -0.000160
     45       0.001504  -0.000675   0.002049  -0.000516   0.478665   0.426779
     46       0.001120  -0.001213   0.000999  -0.001392   0.388504   0.354385
     47      -0.000329   0.000391  -0.001825   0.001043  -0.405280  -0.370657
     48      -0.002213   0.000795  -0.002149   0.001202  -0.656004   0.718245
     49       0.000820   0.000237   0.000590   0.000305   0.070036  -0.083030
     50       0.000134   0.001044  -0.000154  -0.000194  -0.127205   0.146726
     51      -0.000004   0.000018   0.000066  -0.000011   0.000017   0.000108
     52      -0.000002   0.000044  -0.000052   0.000001  -0.000150   0.000049
     53       0.000009  -0.000031   0.000041  -0.000002  -0.000130  -0.000011


-----------
IR SPECTRUM
-----------

 Mode    freq (cm**-1)   T**2         TX         TY         TZ
-------------------------------------------------------------------
   7:        24.87    0.790613  ( -0.870395  -0.168541   0.067972)
   8:        92.85    2.972613  ( -0.412532   1.381975  -0.944763)
   9:       128.08   15.050845  ( -1.012716   2.932397  -2.329442)
  10:       151.15    5.695489  (  2.384220   0.029635  -0.100529)
  11:       180.06   20.983474  ( -0.314147   3.620292   2.788955)
  12:       241.86    1.325085  (  1.101576   0.254785   0.216102)
  13:       278.78   11.128339  (  0.408792  -2.763762  -1.822867)
  14:       326.11   22.841675  (  0.445769  -3.056828  -3.646747)
  15:       333.43   43.004563  (  0.430946   4.107150   5.094131)
  16:       366.05    0.604639  ( -0.158216   0.139145   0.748496)
  17:       421.53    3.560632  ( -1.680993   0.815813   0.263330)
  18:       442.08    6.000537  (  0.057254   2.350816   0.686238)
  19:       477.29  237.455071  ( -1.030651  11.957771   9.664602)
  20:       753.38   13.855565  (  1.000570   0.107313   3.583700)
  21:       829.06    2.362029  (  1.045237   0.995043   0.528581)
  22:       898.93  175.931929  ( -0.771675  -6.690419 -11.426931)
  23:       930.06    3.518461  (  1.512180  -0.846354   0.717954)
  24:       940.69   34.292577  ( -1.776048   4.837988  -2.780666)
  25:       947.97   60.229657  ( -1.370500   7.501331   1.442711)
  26:       953.76   15.142222  ( -1.907801   3.366304   0.412932)
  27:       958.88    0.431269  ( -0.182285  -0.272216  -0.569157)
  28:      1034.92   17.127447  (  0.376660  -3.547113  -2.098466)
  29:      1062.21    1.021488  ( -1.010646   0.005397  -0.007342)
  30:      1211.12    0.225385  ( -0.215412   0.370223   0.204739)
  31:      1258.85    1.579361  (  0.928584  -0.199973   0.822863)
  32:      1268.79    3.621748  (  0.890890   0.921697  -1.406605)
  33:      1362.43    8.626891  ( -2.350259  -0.717662  -1.608768)
  34:      1365.03   14.534684  (  2.973532   1.021276  -2.156336)
  35:      1379.05    3.732197  ( -0.104173  -0.702430   1.796646)
  36:      1416.41    1.680377  (  0.304457  -0.143608   1.251823)
  37:      1430.51    2.397496  (  1.415969   0.579853  -0.237271)
  38:      1436.90    2.939242  ( -0.715945   0.701730  -1.390769)
  39:      1442.87    3.978394  (  1.914871   0.277385  -0.484481)
  40:      1450.55   13.677753  ( -0.316064   2.223623   2.938258)
  41:      1456.13    4.825460  (  1.858148   1.162187  -0.148545)
  42:      1476.10   39.575296  (  2.378137  -3.753080   4.453555)
  43:      3048.23   44.691831  ( -6.050591  -1.591727   2.355543)
  44:      3051.16   12.515677  ( -2.064140  -2.281576  -1.746257)
  45:      3055.53   57.990959  (  3.731360  -5.144259   4.195773)
  46:      3144.82   23.215689  (  3.689416   0.610328   3.038321)
  47:      3146.34   25.526042  (  1.102568   2.242788  -4.390933)
  48:      3157.27   40.243408  ( -0.534416   1.032242  -6.236368)
  49:      3160.27   11.523870  ( -0.826234   3.279196  -0.296787)
  50:      3169.68    9.840846  (  1.346187  -2.549577  -1.236238)
  51:      3182.57   19.528245  (  4.203974   1.355643  -0.130675)
  52:      3257.30    6.136952  (  0.764479  -0.784550   2.221937)
  53:      3398.83    9.672057  (  2.906524   0.831321  -0.730123)

The first frequency considered to be a vibration is 7
The total number of vibrations considered is 47


--------------------------
THERMOCHEMISTRY AT 298.15K
--------------------------

Temperature         ... 298.15 K
Pressure            ... 1.00 atm
Total Mass          ... 230.94 AMU

Throughout the following assumptions are being made:
  (1) The electronic state is orbitally nondegenerate
  (2) There are no thermally accessible electronically excited states
  (3) Hindered rotations indicated by low frequency modes are not
      treated as such but are treated as vibrations and this may
      cause some error
  (4) All equations used are the standard statistical mechanics
      equations for an ideal gas
  (5) All vibrations are strictly harmonic

freq.      24.87  E(vib)   ...       0.56 
freq.      92.85  E(vib)   ...       0.47 
freq.     128.08  E(vib)   ...       0.43 
freq.     151.15  E(vib)   ...       0.40 
freq.     180.06  E(vib)   ...       0.37 
freq.     241.86  E(vib)   ...       0.31 
freq.     278.78  E(vib)   ...       0.28 
freq.     326.11  E(vib)   ...       0.24 
freq.     333.43  E(vib)   ...       0.24 
freq.     366.05  E(vib)   ...       0.22 
freq.     421.53  E(vib)   ...       0.18 
freq.     442.08  E(vib)   ...       0.17 
freq.     477.29  E(vib)   ...       0.15 
freq.     753.38  E(vib)   ...       0.06 
freq.     829.06  E(vib)   ...       0.04 
freq.     898.93  E(vib)   ...       0.03 
freq.     930.06  E(vib)   ...       0.03 
freq.     940.69  E(vib)   ...       0.03 
freq.     947.97  E(vib)   ...       0.03 
freq.     953.76  E(vib)   ...       0.03 
freq.     958.88  E(vib)   ...       0.03 
freq.    1034.92  E(vib)   ...       0.02 
freq.    1062.21  E(vib)   ...       0.02 
freq.    1211.12  E(vib)   ...       0.01 
freq.    1258.85  E(vib)   ...       0.01 
freq.    1268.79  E(vib)   ...       0.01 
freq.    1362.43  E(vib)   ...       0.01 
freq.    1365.03  E(vib)   ...       0.01 
freq.    1379.05  E(vib)   ...       0.01 
freq.    1416.41  E(vib)   ...       0.00 
freq.    1430.51  E(vib)   ...       0.00 
freq.    1436.90  E(vib)   ...       0.00 
freq.    1442.87  E(vib)   ...       0.00 
freq.    1450.55  E(vib)   ...       0.00 
freq.    1456.13  E(vib)   ...       0.00 
freq.    1476.10  E(vib)   ...       0.00 
freq.    3048.23  E(vib)   ...       0.00 
freq.    3051.16  E(vib)   ...       0.00 
freq.    3055.53  E(vib)   ...       0.00 
freq.    3144.82  E(vib)   ...       0.00 
freq.    3146.34  E(vib)   ...       0.00 
freq.    3157.27  E(vib)   ...       0.00 
freq.    3160.27  E(vib)   ...       0.00 
freq.    3169.68  E(vib)   ...       0.00 
freq.    3182.57  E(vib)   ...       0.00 
freq.    3257.30  E(vib)   ...       0.00 
freq.    3398.83  E(vib)   ...       0.00 

------------
INNER ENERGY
------------

The inner energy is: U= E(el) + E(ZPE) + E(vib) + E(rot) + E(trans)
    E(el)   - is the total energy from the electronic structure calculation
              = E(kin-el) + E(nuc-el) + E(el-el) + E(nuc-nuc)
    E(ZPE)  - the the zero temperature vibrational energy from the frequency calculation
    E(vib)  - the the finite temperature correction to E(ZPE) due to population
              of excited vibrational states
    E(rot)  - is the rotational thermal energy
    E(trans)- is the translational thermal energy

Summary of contributions to the inner energy U:
Electronic energy                ...  -5344.02589077 Eh
Zero point energy                ...      0.14922163 Eh      93.64 kcal/mol
Thermal vibrational correction   ...      0.00702865 Eh       4.41 kcal/mol
Thermal rotational correction    ...      0.00141627 Eh       0.89 kcal/mol
Thermal translational correction ...      0.00141627 Eh       0.89 kcal/mol
-----------------------------------------------------------------------
Total thermal energy                  -5343.86680795 Eh


Summary of corrections to the electronic energy:
(perhaps to be used in another calculation)
Total thermal correction                  0.00986119 Eh       6.19 kcal/mol
Non-thermal (ZPE) correction              0.14922163 Eh      93.64 kcal/mol
-----------------------------------------------------------------------
Total correction                          0.15908282 Eh      99.83 kcal/mol


--------
ENTHALPY
--------

The enthalpy is H = U + kB*T
                kB is Boltzmann's constant
Total free energy                 ...  -5343.86680795 Eh 
Thermal Enthalpy correction       ...      0.00094421 Eh       0.59 kcal/mol
-----------------------------------------------------------------------
Total Enthalpy                    ...  -5343.86586374 Eh


Note: Only C1 symmetry has been detected, increase convergence thresholds 
      if your molecule has a higher symmetry. Symmetry factor of 1.0 is   
      used for the rotational entropy correction. 
 

Note: Rotational entropy computed according to Herzberg 
Infrared and Raman Spectra, Chapter V,1, Van Nostrand Reinhold, 1945 
Point Group:  C1, Symmetry Number:   1  
Rotational constants in cm-1:     0.042819     0.015472     0.012326 

Vibrational entropy computed according to the QRRHO of S. Grimme
Chem.Eur.J. 2012 18 9955


-------
ENTROPY
-------

The entropy contributions are T*S = T*(S(el)+S(vib)+S(rot)+S(trans))
     S(el)   - electronic entropy
     S(vib)  - vibrational entropy
     S(rot)  - rotational entropy
     S(trans)- translational entropy
The entropies will be listed as mutliplied by the temperature to get
units of energy

Electronic entropy                ...      0.00000000 Eh      0.00 kcal/mol
Vibrational entropy               ...      0.01247643 Eh      7.83 kcal/mol
Rotational entropy                ...      0.01504160 Eh      9.44 kcal/mol
Translational entropy             ...      0.02005666 Eh     12.59 kcal/mol
-----------------------------------------------------------------------
Final entropy term                ...      0.04757469 Eh     29.85 kcal/mol

In case the symmetry of your molecule has not been determined correctly
or in case you have a reason to use a different symmetry number we print 
out the resulting rotational entropy values for sn=1,12 :
 --------------------------------------------------------
|  sn= 1 | S(rot)=       0.01504160 Eh      9.44 kcal/mol|
|  sn= 2 | S(rot)=       0.01438715 Eh      9.03 kcal/mol|
|  sn= 3 | S(rot)=       0.01400431 Eh      8.79 kcal/mol|
|  sn= 4 | S(rot)=       0.01373269 Eh      8.62 kcal/mol|
|  sn= 5 | S(rot)=       0.01352200 Eh      8.49 kcal/mol|
|  sn= 6 | S(rot)=       0.01334986 Eh      8.38 kcal/mol|
|  sn= 7 | S(rot)=       0.01320431 Eh      8.29 kcal/mol|
|  sn= 8 | S(rot)=       0.01307823 Eh      8.21 kcal/mol|
|  sn= 9 | S(rot)=       0.01296702 Eh      8.14 kcal/mol|
|  sn=10 | S(rot)=       0.01286755 Eh      8.07 kcal/mol|
|  sn=11 | S(rot)=       0.01277756 Eh      8.02 kcal/mol|
|  sn=12 | S(rot)=       0.01269540 Eh      7.97 kcal/mol|
 --------------------------------------------------------


-------------------
GIBBS FREE ENERGY
-------------------

The Gibbs free energy is G = H - T*S

Total enthalpy                    ...  -5343.86586374 Eh 
Total entropy correction          ...     -0.04757469 Eh    -29.85 kcal/mol
-----------------------------------------------------------------------
Final Gibbs free energy         ...  -5343.91343844 Eh

For completeness - the Gibbs free energy minus the electronic energy
G-E(el)                           ...      0.11245234 Eh     70.56 kcal/mol

[1631208964.857463] [comp0810:212602:0]            sys.c:618  UCX  ERROR shmget(size=2097152 flags=0xfb0) for mm_recv_desc failed: Operation not permitted, please check shared memory limits by 'ipcs -l'
[1631208964.857768] [comp0810:212600:0]            sys.c:618  UCX  ERROR shmget(size=2097152 flags=0xfb0) for mm_recv_desc failed: Operation not permitted, please check shared memory limits by 'ipcs -l'
[1631208964.864221] [comp0810:212601:0]            sys.c:618  UCX  ERROR shmget(size=2097152 flags=0xfb0) for mm_recv_desc failed: Operation not permitted, please check shared memory limits by 'ipcs -l'
[1631208964.865678] [comp0810:212603:0]            sys.c:618  UCX  ERROR shmget(size=2097152 flags=0xfb0) for mm_recv_desc failed: Operation not permitted, please check shared memory limits by 'ipcs -l'
[1631208964.872945] [comp0810:212602:0]            sys.c:618  UCX  ERROR shmget(size=2097152 flags=0xb80) for ucp_am_bufs failed: Operation not permitted, please check shared memory limits by 'ipcs -l'
[1631208964.873252] [comp0810:212600:0]            sys.c:618  UCX  ERROR shmget(size=2097152 flags=0xb80) for ucp_am_bufs failed: Operation not permitted, please check shared memory limits by 'ipcs -l'
[1631208964.873655] [comp0810:212601:0]            sys.c:618  UCX  ERROR shmget(size=2097152 flags=0xb80) for ucp_am_bufs failed: Operation not permitted, please check shared memory limits by 'ipcs -l'
[1631208964.872944] [comp0810:212603:0]            sys.c:618  UCX  ERROR shmget(size=2097152 flags=0xb80) for ucp_am_bufs failed: Operation not permitted, please check shared memory limits by 'ipcs -l'

Timings for individual modules:

Sum of individual times         ...      651.415 sec (=  10.857 min)
GTO integral calculation        ...       19.097 sec (=   0.318 min)   2.9 %
SCF iterations                  ...      239.916 sec (=   3.999 min)  36.8 %
SCF Gradient evaluation         ...       79.541 sec (=   1.326 min)  12.2 %
Geometry relaxation             ...        2.656 sec (=   0.044 min)   0.4 %
Analytical frequency calculation...      310.205 sec (=   5.170 min)  47.6 %
                             ****ORCA TERMINATED NORMALLY****
TOTAL RUN TIME: 0 days 0 hours 10 minutes 55 seconds 740 msec
