
                                 *****************
                                 * O   R   C   A *
                                 *****************

           --- An Ab Initio, DFT and Semiempirical electronic structure package ---

                  #######################################################
                  #                        -***-                        #
                  #          Department of theory and spectroscopy      #
                  #               Directorship: Frank Neese             #
                  #        Max Planck Institute fuer Kohlenforschung    #
                  #                Kaiser Wilhelm Platz 1               #
                  #                 D-45470 Muelheim/Ruhr               #
                  #                      Germany                        #
                  #                                                     #
                  #                  All rights reserved                #
                  #                        -***-                        #
                  #######################################################


                         Program Version 4.2.1 -  RELEASE  -


 With contributions from (in alphabetic order):
   Daniel Aravena         : Magnetic Suceptibility
   Michael Atanasov       : Ab Initio Ligand Field Theory (pilot matlab implementation)
   Alexander A. Auer      : GIAO ZORA, VPT2
   Ute Becker             : Parallelization
   Giovanni Bistoni       : ED, misc. LED, open-shell LED, HFLD
   Martin Brehm           : Molecular dynamics
   Dmytro Bykov           : SCF Hessian
   Vijay G. Chilkuri      : MRCI spin determinant printing, contributions to CSF-ICE
   Dipayan Datta          : RHF DLPNO-CCSD density
   Achintya Kumar Dutta   : EOM-CC, STEOM-CC
   Dmitry Ganyushin       : Spin-Orbit,Spin-Spin,Magnetic field MRCI
   Miquel Garcia          : C-PCM Hessian, Gaussian charge scheme
   Yang Guo               : DLPNO-NEVPT2, CIM, IAO-localization
   Andreas Hansen         : Spin unrestricted coupled pair/coupled cluster methods
   Benjamin Helmich-Paris : CASSCF linear response (MC-RPA)
   Lee Huntington         : MR-EOM, pCC
   Robert Izsak           : Overlap fitted RIJCOSX, COSX-SCS-MP3, EOM
   Christian Kollmar      : KDIIS, OOCD, Brueckner-CCSD(T), CCSD density
   Simone Kossmann        : Meta GGA functionals, TD-DFT gradient, OOMP2, MP2 Hessian
   Martin Krupicka        : AUTO-CI
   Lucas Lang             : DCDCAS
   Dagmar Lenk            : GEPOL surface, SMD
   Dimitrios Liakos       : Extrapolation schemes; Compound Job, initial MDCI parallelization
   Dimitrios Manganas     : Further ROCIS development; embedding schemes
   Dimitrios Pantazis     : SARC Basis sets
   Taras Petrenko         : DFT Hessian,TD-DFT gradient, ASA, ECA, R-Raman, ABS, FL, XAS/XES, NRVS
   Peter Pinski           : DLPNO-MP2, DLPNO-MP2 Gradient
   Christoph Reimann      : Effective Core Potentials
   Marius Retegan         : Local ZFS, SOC
   Christoph Riplinger    : Optimizer, TS searches, QM/MM, DLPNO-CCSD(T), (RO)-DLPNO pert. Triples
   Tobias Risthaus        : Range-separated hybrids, TD-DFT gradient, RPA, STAB
   Michael Roemelt        : Original ROCIS implementation
   Masaaki Saitow         : Open-shell DLPNO-CCSD energy and density
   Barbara Sandhoefer     : DKH picture change effects
   Avijit Sen             : IP-ROCIS
   Kantharuban Sivalingam : CASSCF convergence, NEVPT2, FIC-MRCI
   Bernardo de Souza      : ESD, SOC TD-DFT
   Georgi Stoychev        : AutoAux, RI-MP2 NMR
   Willem Van den Heuvel  : Paramagnetic NMR
   Boris Wezisla          : Elementary symmetry handling
   Frank Wennmohs         : Technical directorship


 We gratefully acknowledge several colleagues who have allowed us to
 interface, adapt or use parts of their codes:
   Stefan Grimme, W. Hujo, H. Kruse,             : VdW corrections, initial TS optimization,
                  C. Bannwarth                     DFT functionals, gCP, sTDA/sTD-DF
   Ed Valeev, F. Pavosevic, A. Kumar             : LibInt (2-el integral package), F12 methods
   Garnet Chan, S. Sharma, J. Yang, R. Olivares  : DMRG
   Ulf Ekstrom                                   : XCFun DFT Library
   Mihaly Kallay                                 : mrcc  (arbitrary order and MRCC methods)
   Andreas Klamt, Michael Diedenhofen            : otool_cosmo (COSMO solvation model)
   Jiri Pittner, Ondrej Demel                    : Mk-CCSD
   Frank Weinhold                                : gennbo (NPA and NBO analysis)
   Christopher J. Cramer and Donald G. Truhlar   : smd solvation model
   Lars Goerigk                                  : TD-DFT with DH, B97 family of functionals
   V. Asgeirsson, H. Jonsson                     : NEB implementation
   FAccTs GmbH                                   : IRC, NEB, NEB-TS, Multilevel, MM, QM/MM, CI optimization
   S Lehtola, MJT Oliveira, MAL Marques          : LibXC Library


 Your calculation uses the libint2 library for the computation of 2-el integrals
 For citations please refer to: http://libint.valeyev.net

 Your ORCA version has been built with support for libXC version: 4.2.3
 For citations please refer to: https://tddft.org/programs/libxc/

 This ORCA versions uses:
   CBLAS   interface :  Fast vector & matrix operations
   LAPACKE interface :  Fast linear algebra routines
   SCALAPACK package :  Parallel linear algebra routines


Your calculation utilizes the atom-pairwise dispersion correction
with the Becke-Johnson damping scheme (D3BJ)
Cite in your paper:
S.Grimme, S.Ehrlich, L.Goerigk, J Comput Chem, (2011), 32, 1456–1465 
S.Grimme, J.Antony, S.Ehrlich and H.Krieg, J.Chem.Phys., 132, (2010), 154104 
   

----- Orbital basis set information -----
Your calculation utilizes the basis: def2-SVP
   F. Weigend and R. Ahlrichs, Phys. Chem. Chem. Phys. 7, 3297 (2005).

----- AuxJ basis set information -----
Your calculation utilizes the auxiliary basis: def2/J
   F. Weigend, Phys. Chem. Chem. Phys. 8, 1057 (2006).

================================================================================
                                        WARNINGS
                       Please study these warnings very carefully!
================================================================================


WARNING: Geometry Optimization
  ===> : Switching off AutoStart
         For restart on a previous wavefunction, please use MOREAD

INFO   : the flag for use of LIBINT has been found!

================================================================================
                                       INPUT FILE
================================================================================
NAME = manual_333_redo_2.inp
|  1> ! OptTS Freq PBE0 RIJCOSX D3BJ def2-SVP def2/J CPCM(Acetone)
|  2> %geom
|  3> modify_internal
|  4> { B 1 14 A } end
|  5> end
|  6> %geom
|  7> modify_internal
|  8> { B 1 4 A } end
|  9> end
| 10> %geom
| 11> Constraints
| 12> {C 14 C}
| 13> {C 4 C}
| 14> end
| 15> end
| 16> %output 
| 17> xyzfile=True 
| 18> end 
| 19> %scf 
| 20> maxiter 250 
| 21> end
| 22> %output
| 23> Print[P_Hirshfeld] = 1
| 24> end
| 25> % maxcore
| 26> 4000
| 27> %geom
| 28> Calc_Hess true
| 29> Recalc_Hess 30
| 30> Trust -0.1
| 31> MaxIter 150
| 32> end
| 33> %pal nprocs 4
| 34> end
| 35> *xyz -1 1
| 36>   C   6.81195377804339      1.33669859705544     -0.12409115264081
| 37>   C   6.11596718133542      0.04566710115891     -0.23259894752560
| 38>   C   4.70302716638428     -0.05160324312650      0.16254123997303
| 39>   C   6.84158226788788     -1.14601610130547     -0.69226151128172
| 40>   Br  6.85050005803464     -0.55429554692500      2.80856313473467
| 41>   H   6.64903769411805      1.79369029504183     -1.11879110464942
| 42>   H   6.37419568570653      1.98623367511860      0.64133634386059
| 43>   H   7.89243236459460      1.21171290012729      0.02118328099120
| 44>   H   4.15984738506656      0.23512109440381     -0.75738874131454
| 45>   H   4.44981516194393      0.65615210747933      0.95923883102737
| 46>   H   4.41634402027223     -1.07689436042766      0.42657409607096
| 47>   H   7.24364804806418     -1.57497971959576      0.24708529761762
| 48>   H   7.68098297029870     -0.89175684746912     -1.34846520329168
| 49>   H   6.17569640137360     -1.88116918163514     -1.15711038096883
| 50>   Br  5.44598528070721      0.46855587433879     -3.01760857412873  
| 51> *
| 52> 
| 53>                          ****END OF INPUT****
================================================================================

                       *****************************
                       * Geometry Optimization Run *
                       *****************************

Geometry optimization settings:
Update method            Update   .... Bofill
Choice of coordinates    CoordSys .... Z-matrix Internals
Initial Hessian          InHess   .... Almoef's Model

Convergence Tolerances:
Energy Change            TolE     ....  5.0000e-06 Eh
Max. Gradient            TolMAXG  ....  3.0000e-04 Eh/bohr
RMS Gradient             TolRMSG  ....  1.0000e-04 Eh/bohr
Max. Displacement        TolMAXD  ....  4.0000e-03 bohr
RMS Displacement         TolRMSD  ....  2.0000e-03 bohr
Strict Convergence                ....  False
------------------------------------------------------------------------------
                        ORCA OPTIMIZATION COORDINATE SETUP
------------------------------------------------------------------------------

The optimization will be done in new redundant internal coordinates
Making redundant internal coordinates   ...  (new redundants) Bond  14,  1 is already included
Bond   4,  1 is already included
done
Following TS mode number                ...     0
Evaluating the initial hessian          ...  (Is done on the fly) done
Evaluating the coordinates              ...  done
Calculating the B-matrix                .... done
Calculating the G-matrix                .... done
Diagonalizing the G-matrix              .... done
Imposing constraints:
 Iter   0:  RMS(Cart)=    0.0000000000 RMS(Int)=    0.0000000000
CONVERGED
Will constrain atom 4 coordinate 1 
Will constrain atom 4 coordinate 2 
Will constrain atom 4 coordinate 3 
Will constrain atom 14 coordinate 1 
Will constrain atom 14 coordinate 2 
Will constrain atom 14 coordinate 3 
The first mode is                       ....  189
The number of degrees of freedom        ....   44
Storing new coordinates                 .... done

    -----------------------------------------------------------------
                    Redundant Internal Coordinates


    -----------------------------------------------------------------
         Definition                    Initial Value    d2E/dq (diagonal element)
    -----------------------------------------------------------------
      1. B(C   1,C   0)                  1.4707         0.000000   
      2. B(C   2,C   1)                  1.4704         0.000000   
      3. B(C   3,C   1)                  1.4690         0.000000   
      4. B(Br  4,C   1)                  3.1856         0.000000   
      5. B(Br  4,C   3)                  3.5505         0.000000   
      6. B(Br  4,C   2)                  3.4447         0.000000   
      7. B(Br  4,C   0)                  3.4897         0.000000   
      8. B(H   5,C   0)                  1.1067         0.000000   
      9. B(H   6,C   0)                  1.0952         0.000000   
     10. B(H   6,Br  4)                  3.3731         0.000000   
     11. B(H   7,Br  4)                  3.4603         0.000000   
     12. B(H   7,C   0)                  1.0973         0.000000   
     13. B(H   8,C   2)                  1.1061         0.000000   
     14. B(H   9,C   2)                  1.0953         0.000000   
     15. B(H   9,Br  4)                  3.2632         0.000000   
     16. B(H  10,Br  4)                  3.4456         0.000000   
     17. B(H  10,C   2)                  1.0969         0.000000   
     18. B(H  11,C   3)                  1.1082         0.000000   
     19. B(H  11,Br  4)                  2.7852         0.000000   
     20. B(H  12,C   3)                  1.0954         0.000000   
     21. B(H  13,C   3)                  1.0954         0.000000   
     22. B(Br 14,C   3)                  3.1562         0.000000   
     23. B(Br 14,H   5)                  2.6094         0.000000   
     24. B(Br 14,H   8)                  2.6110         0.000000   
     25. B(Br 14,H  12)                  3.1035         0.000000   
     26. B(Br 14,H  13)                  3.0847         0.000000   
     27. B(Br 14,C   0)                  3.3154         0.000000   
     28. B(Br 14,C   1)                  2.8955         0.000000   
     29. B(Br 14,C   2)                  3.3069         0.000000   
     30. A(C   1,C   0,Br 14)           60.7100         0.000000   
     31. A(C   1,C   0,Br  4)           65.8921         0.000000   
     32. A(H   6,C   0,H   7)          111.6292         0.000000   
     33. A(C   1,C   0,H   7)          112.0705         0.000000   
     34. A(H   5,C   0,Br 14)           42.5286         0.000000   
     35. A(Br  4,C   0,H   6)           74.8379         0.000000   
     36. A(H   5,C   0,H   6)          108.9309         0.000000   
     37. A(Br  4,C   0,H   5)          168.7278         0.000000   
     38. A(C   1,C   0,H   5)          103.0915         0.000000   
     39. A(C   1,C   0,H   6)          112.5222         0.000000   
     40. A(H   6,C   0,Br 14)          126.9119         0.000000   
     41. A(H   7,C   0,Br 14)          119.4320         0.000000   
     42. A(H   5,C   0,H   7)          108.1174         0.000000   
     43. A(Br  4,C   0,Br 14)          126.5910         0.000000   
     44. A(Br  4,C   0,H   7)           79.4058         0.000000   
     45. A(C   2,C   1,C   3)          120.3372         0.000000   
     46. A(C   2,C   1,Br  4)           87.2811         0.000000   
     47. A(C   2,C   1,Br 14)           92.6246         0.000000   
     48. A(C   0,C   1,Br 14)           92.9955         0.000000   
     49. A(C   0,C   1,C   3)          120.0964         0.000000   
     50. A(C   0,C   1,Br  4)           89.1850         0.000000   
     51. A(C   3,C   1,Br  4)           91.8363         0.000000   
     52. A(C   3,C   1,Br 14)           86.0897         0.000000   
     53. A(C   0,C   1,C   2)          119.5378         0.000000   
     54. A(H   8,C   2,H   9)          108.8991         0.000000   
     55. A(C   1,C   2,H  10)          112.1901         0.000000   
     56. A(C   1,C   2,Br  4)           67.4813         0.000000   
     57. A(Br  4,C   2,Br 14)          128.4323         0.000000   
     58. A(H   8,C   2,H  10)          108.3092         0.000000   
     59. A(H   8,C   2,Br 14)           43.0949         0.000000   
     60. A(Br  4,C   2,H   9)           71.3187         0.000000   
     61. A(C   1,C   2,Br 14)           61.0055         0.000000   
     62. A(H   9,C   2,H  10)          111.6220         0.000000   
     63. A(H  10,C   2,Br 14)          115.9275         0.000000   
     64. A(Br  4,C   2,H   8)          169.3603         0.000000   
     65. A(C   1,C   2,H   8)          103.3699         0.000000   
     66. A(H   9,C   2,Br 14)          130.5240         0.000000   
     67. A(Br  4,C   2,H  10)           80.8874         0.000000   
     68. A(C   1,C   2,H   9)          112.0159         0.000000   
     69. A(Br  4,C   3,Br 14)          129.9635         0.000000   
     70. A(C   1,C   3,H  11)          103.1791         0.000000   
     71. A(C   1,C   3,H  12)          112.1899         0.000000   
     72. A(H  11,C   3,H  12)          108.6401         0.000000   
     73. A(C   1,C   3,Br 14)           66.2428         0.000000   
     74. A(H  11,C   3,Br 14)          169.4065         0.000000   
     75. A(C   1,C   3,H  13)          112.1448         0.000000   
     76. A(H  12,C   3,Br 14)           77.2169         0.000000   
     77. A(H  13,C   3,Br 14)           76.2242         0.000000   
     78. A(H  11,C   3,H  13)          108.6918         0.000000   
     79. A(H  12,C   3,H  13)          111.5548         0.000000   
     80. A(C   1,C   3,Br  4)           63.7370         0.000000   
     81. A(Br  4,C   3,H  11)           39.4483         0.000000   
     82. A(Br  4,C   3,H  12)          123.3724         0.000000   
     83. A(Br  4,C   3,H  13)          122.1269         0.000000   
     84. A(C   0,Br  4,C   3)           42.4095         0.000000   
     85. A(C   1,Br  4,C   3)           24.4267         0.000000   
     86. A(C   2,Br  4,C   3)           42.7225         0.000000   
     87. A(C   0,Br  4,C   1)           24.9229         0.000000   
     88. A(C   0,Br  4,C   2)           42.9875         0.000000   
     89. A(C   1,Br  4,C   2)           25.2376         0.000000   
     90. A(C   1,Br 14,C   3)           27.6676         0.000000   
     91. A(C   2,Br 14,C   3)           46.3998         0.000000   
     92. A(C   0,Br 14,C   1)           26.2945         0.000000   
     93. A(C   0,Br 14,C   2)           45.1275         0.000000   
     94. A(C   1,Br 14,C   2)           26.3699         0.000000   
     95. A(C   0,Br 14,C   3)           46.2731         0.000000   
     96. D(Br  4,C   1,C   0,H   5)   -177.4750         0.000000   
     97. D(C   2,C   1,C   0,H   6)     26.1315         0.000000   
     98. D(C   3,C   1,C   0,H   7)    -25.1523         0.000000   
     99. D(Br 14,C   1,C   0,H   5)      3.6606         0.000000   
    100. D(C   2,C   1,C   0,Br  4)     86.4116         0.000000   
    101. D(Br 14,C   1,C   0,H   7)   -112.3666         0.000000   
    102. D(C   2,C   1,C   0,H   7)    152.9094         0.000000   
    103. D(C   3,C   1,C   0,H   6)   -151.9302         0.000000   
    104. D(Br 14,C   1,C   0,Br  4)   -178.8644         0.000000   
    105. D(Br  4,C   1,C   0,H   7)     66.4978         0.000000   
    106. D(C   3,C   1,C   0,Br  4)    -91.6501         0.000000   
    107. D(C   2,C   1,C   0,H   5)    -91.0634         0.000000   
    108. D(C   2,C   1,C   0,Br 14)    -94.7240         0.000000   
    109. D(Br  4,C   1,C   0,H   6)    -60.2801         0.000000   
    110. D(C   3,C   1,C   0,Br 14)     87.2143         0.000000   
    111. D(Br 14,C   1,C   0,H   6)    120.8555         0.000000   
    112. D(C   3,C   1,C   0,H   5)     90.8749         0.000000   
    113. D(Br  4,C   1,C   0,Br 14)    178.8644         0.000000   
    114. D(Br  4,C   2,C   1,C   3)     90.5373         0.000000   
    115. D(H   9,C   2,C   1,C   0)    -30.3160         0.000000   
    116. D(H   9,C   2,C   1,Br 14)   -125.2554         0.000000   
    117. D(H   8,C   2,C   1,C   0)     86.7629         0.000000   
    118. D(H   8,C   2,C   1,Br  4)    174.2825         0.000000   
    119. D(Br  4,C   2,C   1,Br 14)    177.5410         0.000000   
    120. D(H  10,C   2,C   1,Br  4)    -69.2512         0.000000   
    121. D(Br 14,C   2,C   1,C   0)     94.9394         0.000000   
    122. D(H  10,C   2,C   1,C   0)   -156.7708         0.000000   
    123. D(H   8,C   2,C   1,C   3)    -95.1802         0.000000   
    124. D(H  10,C   2,C   1,Br 14)    108.2899         0.000000   
    125. D(H   9,C   2,C   1,Br  4)     57.2036         0.000000   
    126. D(H   9,C   2,C   1,C   3)    147.7409         0.000000   
    127. D(Br 14,C   2,C   1,C   3)    -87.0037         0.000000   
    128. D(Br 14,C   2,C   1,Br  4)   -177.5410         0.000000   
    129. D(Br  4,C   2,C   1,C   0)    -87.5196         0.000000   
    130. D(H   8,C   2,C   1,Br 14)     -8.1765         0.000000   
    131. D(H  10,C   2,C   1,C   3)     21.2861         0.000000   
    132. D(H  12,C   3,C   1,Br 14)     63.8566         0.000000   
    133. D(H  13,C   3,C   1,C   2)     28.1436         0.000000   
    134. D(H  13,C   3,C   1,C   0)   -153.8103         0.000000   
    135. D(H  12,C   3,C   1,C   2)    154.6117         0.000000   
    136. D(H  11,C   3,C   1,C   0)     89.4038         0.000000   
    137. D(H  12,C   3,C   1,C   0)    -27.3423         0.000000   
    138. D(H  11,C   3,C   1,C   2)    -88.6422         0.000000   
    139. D(H  11,C   3,C   1,Br 14)   -179.3973         0.000000   
    140. D(H  13,C   3,C   1,Br 14)    -62.6115         0.000000   
    141. D(Br 14,C   3,C   1,Br  4)    178.6789         0.000000   
    142. D(Br  4,C   3,C   1,C   0)     90.1222         0.000000   
    143. D(Br  4,C   3,C   1,C   2)    -87.9238         0.000000   
    144. D(Br 14,C   3,C   1,C   2)     90.7551         0.000000   
    145. D(Br  4,C   3,C   1,Br 14)   -178.6789         0.000000   
    146. D(Br 14,C   3,C   1,C   0)    -91.1989         0.000000   
    147. D(H  12,C   3,C   1,Br  4)   -117.4645         0.000000   
    148. D(H  11,C   3,C   1,Br  4)     -0.7184         0.000000   
    149. D(H  13,C   3,C   1,Br  4)    116.0675         0.000000   
    150. D(C   2,Br  4,C   0,H   7)   -153.0940         0.000000   
    151. D(C   1,Br  4,C   0,H   6)    123.7824         0.000000   
    152. D(C   2,Br  4,C   0,H   6)     90.8533         0.000000   
    153. D(C   1,Br  4,C   0,H   5)     12.6811         0.000000   
    154. D(C   1,Br  4,C   0,H   7)   -120.1649         0.000000   
    155. D(C   3,Br  4,C   0,C   1)     32.0424         0.000000   
    156. D(C   2,Br  4,C   0,H   5)    -20.2480         0.000000   
    157. D(C   2,Br  4,C   0,C   1)    -32.9291         0.000000   
    158. D(C   3,Br  4,C   0,H   5)     44.7235         0.000000   
    159. D(C   3,Br  4,C   0,H   6)    155.8247         0.000000   
    160. D(C   2,Br  4,C   3,H  11)   -148.2364         0.000000   
    161. D(C   0,Br  4,C   1,C   2)   -119.6222         0.000000   
    162. D(C   0,Br  4,C   1,C   3)    120.0867         0.000000   
    163. D(C   1,Br  4,C   3,H  11)    178.8991         0.000000   
    164. D(C   2,Br  4,C   1,C   3)   -120.2911         0.000000   
    165. D(C   3,Br  4,C   1,C   0)   -120.0867         0.000000   
    166. D(C   3,Br  4,C   1,C   2)    120.2911         0.000000   
    167. D(C   0,Br  4,C   2,C   1)     32.4972         0.000000   
    168. D(C   0,Br  4,C   2,H   8)      0.8318         0.000000   
    169. D(C   0,Br  4,C   2,H   9)    -92.1524         0.000000   
    170. D(C   0,Br  4,C   2,H  10)    151.2206         0.000000   
    171. D(C   1,Br  4,C   2,H   8)    -31.6654         0.000000   
    172. D(C   1,Br  4,C   2,H   9)   -124.6495         0.000000   
    173. D(C   1,Br  4,C   2,H  10)    118.7234         0.000000   
    174. D(C   3,Br  4,C   2,C   1)    -31.7562         0.000000   
    175. D(C   3,Br  4,C   2,H   8)    -63.4216         0.000000   
    176. D(C   3,Br  4,C   2,H   9)   -156.4058         0.000000   
    177. D(C   3,Br  4,C   2,H  10)     86.9672         0.000000   
    178. D(C   0,Br  4,C   3,C   1)    -32.7274         0.000000   
    179. D(C   0,Br  4,C   3,H  11)    146.1717         0.000000   
    180. D(C   0,Br  4,C   3,H  12)     67.6011         0.000000   
    181. D(C   2,Br  4,C   1,C   0)    119.6222         0.000000   
    182. D(C   0,Br  4,C   3,H  13)   -133.4756         0.000000   
    183. D(C   1,Br  4,C   3,H  12)    100.3285         0.000000   
    184. D(C   1,Br  4,C   3,H  13)   -100.7482         0.000000   
    185. D(C   3,Br  4,C   0,H   7)    -88.1225         0.000000   
    186. D(C   2,Br  4,C   3,C   1)     32.8645         0.000000   
    187. D(C   2,Br  4,C   3,H  12)    133.1930         0.000000   
    188. D(C   2,Br  4,C   3,H  13)    -67.8837         0.000000   
    189. D(C   1,Br 14,C   3,H  12)   -121.5336         0.000000   
    190. D(C   1,Br 14,C   0,H   6)    -97.3505         0.000000   
    191. D(C   1,Br 14,C   0,H   7)    100.2638         0.000000   
    192. D(C   0,Br 14,C   3,H  11)     35.2648         0.000000   
    193. D(C   2,Br 14,C   0,H   5)   -141.7643         0.000000   
    194. D(C   2,Br 14,C   0,H   6)    -64.3934         0.000000   
    195. D(C   3,Br 14,C   2,H   8)   -158.0473         0.000000   
    196. D(C   3,Br 14,C   0,C   1)    -33.8189         0.000000   
    197. D(C   3,Br 14,C   0,H   5)    151.4596         0.000000   
    198. D(C   3,Br 14,C   0,H   6)   -131.1694         0.000000   
    199. D(C   3,Br 14,C   0,H   7)     66.4449         0.000000   
    200. D(C   0,Br 14,C   1,C   2)    119.7746         0.000000   
    201. D(C   0,Br 14,C   1,C   3)   -119.9827         0.000000   
    202. D(C   2,Br 14,C   1,C   0)   -119.7746         0.000000   
    203. D(C   2,Br 14,C   1,C   3)    120.2427         0.000000   
    204. D(C   3,Br 14,C   1,C   0)    119.9827         0.000000   
    205. D(C   3,Br 14,C   1,C   2)   -120.2427         0.000000   
    206. D(C   0,Br 14,C   2,C   1)    -32.8585         0.000000   
    207. D(C   0,Br 14,C   2,H   8)    135.4567         0.000000   
    208. D(C   0,Br 14,C   2,H   9)     62.3108         0.000000   
    209. D(C   0,Br 14,C   2,H  10)   -135.0219         0.000000   
    210. D(C   1,Br 14,C   2,H   8)    168.3152         0.000000   
    211. D(C   1,Br 14,C   2,H   9)     95.1694         0.000000   
    212. D(C   1,Br 14,C   2,H  10)   -102.1634         0.000000   
    213. D(C   2,Br 14,C   0,H   7)    133.2209         0.000000   
    214. D(C   3,Br 14,C   2,C   1)     33.6375         0.000000   
    215. D(C   3,Br 14,C   2,H   9)    128.8068         0.000000   
    216. D(C   3,Br 14,C   2,H  10)    -68.5259         0.000000   
    217. D(C   2,Br 14,C   0,C   1)     32.9571         0.000000   
    218. D(C   0,Br 14,C   3,C   1)     32.0713         0.000000   
    219. D(C   0,Br 14,C   3,H  12)    -89.4624         0.000000   
    220. D(C   0,Br 14,C   3,H  13)    154.2094         0.000000   
    221. D(C   1,Br 14,C   0,H   5)   -174.7214         0.000000   
    222. D(C   1,Br 14,C   3,H  11)      3.1935         0.000000   
    223. D(C   1,Br 14,C   3,H  13)    122.1382         0.000000   
    224. D(C   2,Br 14,C   3,C   1)    -31.9965         0.000000   
    225. D(C   2,Br 14,C   3,H  11)    -28.8030         0.000000   
    226. D(C   2,Br 14,C   3,H  12)   -153.5301         0.000000   
    227. D(C   2,Br 14,C   3,H  13)     90.1417         0.000000   
    228. C_2(Br  4)                      2.8086         0.000000 C 
    229. C_0(Br  4)                      6.8505         0.000000 C 
    230. C_1(Br  4)                     -0.5543         0.000000 C 
    231. C_2(Br 14)                     -3.0176         0.000000 C 
    232. C_1(Br 14)                      0.4686         0.000000 C 
    233. C_0(Br 14)                      5.4460         0.000000 C 
    -----------------------------------------------------------------

Number of atoms                         .... 15
Number of degrees of freedom            .... 233

         *************************************************************
         *                GEOMETRY OPTIMIZATION CYCLE   1            *
         *************************************************************
---------------------------------
CARTESIAN COORDINATES (ANGSTROEM)
---------------------------------
  C      6.811954    1.336699   -0.124091
  C      6.115967    0.045667   -0.232599
  C      4.703027   -0.051603    0.162541
  C      6.841582   -1.146016   -0.692262
  Br     6.850500   -0.554296    2.808563
  H      6.649038    1.793690   -1.118791
  H      6.374196    1.986234    0.641336
  H      7.892432    1.211713    0.021183
  H      4.159847    0.235121   -0.757389
  H      4.449815    0.656152    0.959239
  H      4.416344   -1.076894    0.426574
  H      7.243648   -1.574980    0.247085
  H      7.680983   -0.891757   -1.348465
  H      6.175696   -1.881169   -1.157110
  Br     5.445985    0.468556   -3.017609

----------------------------
CARTESIAN COORDINATES (A.U.)
----------------------------
  NO LB      ZA    FRAG     MASS         X           Y           Z
   0 C     6.0000    0    12.011   12.872727    2.525994   -0.234498
   1 C     6.0000    0    12.011   11.557503    0.086298   -0.439548
   2 C     6.0000    0    12.011    8.887433   -0.097516    0.307158
   3 C     6.0000    0    12.011   12.928717   -2.165657   -1.308185
   4 Br   35.0000    0    79.900   12.945569   -1.047467    5.307415
   5 H     1.0000    0     1.008   12.564860    3.389583   -2.114209
   6 H     1.0000    0     1.008   12.045484    3.753438    1.211950
   7 H     1.0000    0     1.008   14.914536    2.289806    0.040031
   8 H     1.0000    0     1.008    7.860972    0.444314   -1.431257
   9 H     1.0000    0     1.008    8.408932    1.239948    1.812699
  10 H     1.0000    0     1.008    8.345681   -2.035035    0.806108
  11 H     1.0000    0     1.008   13.688511   -2.976280    0.466924
  12 H     1.0000    0     1.008   14.514954   -1.685176   -2.548230
  13 H     1.0000    0     1.008   11.670375   -3.554895   -2.186622
  14 Br   35.0000    0    79.900   10.291421    0.885442   -5.702454

--------------------------------
INTERNAL COORDINATES (ANGSTROEM)
--------------------------------
 C      0   0   0     0.000000000000     0.00000000     0.00000000
 C      1   0   0     1.470691540652     0.00000000     0.00000000
 C      2   1   0     1.470373004888   119.53781077     0.00000000
 C      2   1   3     1.468984608969   120.09643477   181.93833428
 Br     2   1   3     3.185617763735    89.18495033   273.58843788
 H      1   2   3     1.106711822001   103.09153232   268.93658669
 H      1   2   3     1.095174514605   112.52221614    26.13146476
 H      1   2   3     1.097342271809   112.07054719   152.90936114
 H      3   2   1     1.106131226861   103.36989613    86.76288199
 H      3   2   1     1.095336024741   112.01586301   329.68398264
 H      3   2   1     1.096869386290   112.19010799   203.22922138
 H      4   2   1     1.108169258189   103.17912472    89.40379742
 H      4   2   1     1.095374179345   112.18994724   332.65769215
 H      4   2   1     1.095417048613   112.14477008   206.18966015
 Br     6   1   2     2.609372362225   120.81121530   355.27475584

---------------------------
INTERNAL COORDINATES (A.U.)
---------------------------
 C      0   0   0     0.000000000000     0.00000000     0.00000000
 C      1   0   0     2.779204239307     0.00000000     0.00000000
 C      2   1   0     2.778602293950   119.53781077     0.00000000
 C      2   1   3     2.775978605896   120.09643477   181.93833428
 Br     2   1   3     6.019945140814    89.18495033   273.58843788
 H      1   2   3     2.091382252754   103.09153232   268.93658669
 H      1   2   3     2.069579901454   112.52221614    26.13146476
 H      1   2   3     2.073676368894   112.07054719   152.90936114
 H      3   2   1     2.090285086945   103.36989613    86.76288199
 H      3   2   1     2.069885111379   112.01586301   329.68398264
 H      3   2   1     2.072782744771   112.19010799   203.22922138
 H      4   2   1     2.094136408008   103.17912472    89.40379742
 H      4   2   1     2.069957213132   112.18994724   332.65769215
 H      4   2   1     2.070038224306   112.14477008   206.18966015
 Br     6   1   2     4.930999146029   120.81121530   355.27475584

---------------------
BASIS SET INFORMATION
---------------------
There are 3 groups of distinct atoms

 Group   1 Type C   : 7s4p1d contracted to 3s2p1d pattern {511/31/1}
 Group   2 Type Br  : 14s10p6d contracted to 5s4p3d pattern {63311/5311/411}
 Group   3 Type H   : 4s1p contracted to 2s1p pattern {31/1}

Atom   0C    basis set group =>   1
Atom   1C    basis set group =>   1
Atom   2C    basis set group =>   1
Atom   3C    basis set group =>   1
Atom   4Br   basis set group =>   2
Atom   5H    basis set group =>   3
Atom   6H    basis set group =>   3
Atom   7H    basis set group =>   3
Atom   8H    basis set group =>   3
Atom   9H    basis set group =>   3
Atom  10H    basis set group =>   3
Atom  11H    basis set group =>   3
Atom  12H    basis set group =>   3
Atom  13H    basis set group =>   3
Atom  14Br   basis set group =>   2
---------------------------------
AUXILIARY/J BASIS SET INFORMATION
---------------------------------
There are 3 groups of distinct atoms

 Group   1 Type C   : 12s5p4d2f1g contracted to 6s4p3d1f1g pattern {711111/2111/211/2/1}
 Group   2 Type Br  : 19s5p5d3f1g contracted to 8s4p3d2f1g pattern {121111111/2111/311/21/1}
 Group   3 Type H   : 5s2p1d contracted to 3s1p1d pattern {311/2/1}

Atom   0C    basis set group =>   1
Atom   1C    basis set group =>   1
Atom   2C    basis set group =>   1
Atom   3C    basis set group =>   1
Atom   4Br   basis set group =>   2
Atom   5H    basis set group =>   3
Atom   6H    basis set group =>   3
Atom   7H    basis set group =>   3
Atom   8H    basis set group =>   3
Atom   9H    basis set group =>   3
Atom  10H    basis set group =>   3
Atom  11H    basis set group =>   3
Atom  12H    basis set group =>   3
Atom  13H    basis set group =>   3
Atom  14Br   basis set group =>   2
[1631527662.210101] [comp0808:244040:0]            sys.c:618  UCX  ERROR shmget(size=2097152 flags=0xfb0) for mm_recv_desc failed: Operation not permitted, please check shared memory limits by 'ipcs -l'
[1631527662.218060] [comp0808:244042:0]            sys.c:618  UCX  ERROR shmget(size=2097152 flags=0xfb0) for mm_recv_desc failed: Operation not permitted, please check shared memory limits by 'ipcs -l'
[1631527662.224815] [comp0808:244041:0]            sys.c:618  UCX  ERROR shmget(size=2097152 flags=0xfb0) for mm_recv_desc failed: Operation not permitted, please check shared memory limits by 'ipcs -l'
[1631527662.227498] [comp0808:244043:0]            sys.c:618  UCX  ERROR shmget(size=2097152 flags=0xfb0) for mm_recv_desc failed: Operation not permitted, please check shared memory limits by 'ipcs -l'
[1631527662.245526] [comp0808:244040:0]            sys.c:618  UCX  ERROR shmget(size=2097152 flags=0xb80) for ucp_am_bufs failed: Operation not permitted, please check shared memory limits by 'ipcs -l'
[1631527662.250654] [comp0808:244043:0]            sys.c:618  UCX  ERROR shmget(size=2097152 flags=0xb80) for ucp_am_bufs failed: Operation not permitted, please check shared memory limits by 'ipcs -l'
[1631527662.250597] [comp0808:244041:0]            sys.c:618  UCX  ERROR shmget(size=2097152 flags=0xb80) for ucp_am_bufs failed: Operation not permitted, please check shared memory limits by 'ipcs -l'
[1631527662.251827] [comp0808:244042:0]            sys.c:618  UCX  ERROR shmget(size=2097152 flags=0xb80) for ucp_am_bufs failed: Operation not permitted, please check shared memory limits by 'ipcs -l'


           ************************************************************
           *        Program running with 4 parallel MPI-processes     *
           *              working on a common directory               *
           ************************************************************
------------------------------------------------------------------------------
                           ORCA GTO INTEGRAL CALCULATION
                           -- RI-GTO INTEGRALS CHOSEN --
------------------------------------------------------------------------------

                         BASIS SET STATISTICS AND STARTUP INFO

Gaussian basis set:
 # of primitive gaussian shells          ...  153
 # of primitive gaussian functions       ...  307
 # of contracted shells                  ...   75
 # of contracted basis functions         ...  165
 Highest angular momentum                ...    2
 Maximum contraction depth               ...    6
Auxiliary gaussian basis set:
 # of primitive gaussian shells          ...  234
 # of primitive gaussian functions       ...  602
 # of contracted shells                  ...  141
 # of contracted aux-basis functions     ...  411
 Highest angular momentum                ...    4
 Maximum contraction depth               ...   12
Ratio of auxiliary to basis functions    ...  2.49
Integral package used                  ... LIBINT
 One Electron integrals                  ... done
 Ordering auxiliary basis shells         ... done
 Integral threshhold             Thresh  ...  2.500e-11
 Primitive cut-off               TCut    ...  2.500e-12
 Pre-screening matrix                    ... done
 Shell pair data                         ... 
 Ordering of the shell pairs             ... done (   0.000 sec) 2605 of 2850 pairs
 Determination of significant pairs      ... done (   0.000 sec)
 Creation of shell pair data             ... done (   0.000 sec)
 Storage of shell pair data              ... done (   0.008 sec)
 Shell pair data done in (   0.009 sec)
 Computing two index integrals           ... done
 Cholesky decomposition of the V-matrix  ... done


Timings:
 Total evaluation time                   ...   0.439 sec (  0.007 min)
 One electron matrix time                ...   0.030 sec (  0.000 min) =  6.8%
 Schwartz matrix evaluation time         ...   0.137 sec (  0.002 min) = 31.1%
 Two index repulsion integral time       ...   0.004 sec (  0.000 min) =  0.8%
 Cholesky decomposition of V             ...   0.225 sec (  0.004 min) = 51.3%
 Three index repulsion integral time     ...   0.000 sec (  0.000 min) =  0.0%

[1631527664.716119] [comp0808:244067:0]            sys.c:618  UCX  ERROR shmget(size=2097152 flags=0xfb0) for mm_recv_desc failed: Operation not permitted, please check shared memory limits by 'ipcs -l'
[1631527664.721646] [comp0808:244065:0]            sys.c:618  UCX  ERROR shmget(size=2097152 flags=0xfb0) for mm_recv_desc failed: Operation not permitted, please check shared memory limits by 'ipcs -l'
[1631527664.741631] [comp0808:244068:0]            sys.c:618  UCX  ERROR shmget(size=2097152 flags=0xfb0) for mm_recv_desc failed: Operation not permitted, please check shared memory limits by 'ipcs -l'
[1631527664.745747] [comp0808:244066:0]            sys.c:618  UCX  ERROR shmget(size=2097152 flags=0xfb0) for mm_recv_desc failed: Operation not permitted, please check shared memory limits by 'ipcs -l'
[1631527664.762260] [comp0808:244065:0]            sys.c:618  UCX  ERROR shmget(size=2097152 flags=0xb80) for ucp_am_bufs failed: Operation not permitted, please check shared memory limits by 'ipcs -l'
[1631527664.762979] [comp0808:244067:0]            sys.c:618  UCX  ERROR shmget(size=2097152 flags=0xb80) for ucp_am_bufs failed: Operation not permitted, please check shared memory limits by 'ipcs -l'


           ************************************************************
           *        Program running with 4 parallel MPI-processes     *
           *              working on a common directory               *
           ************************************************************
[1631527664.766933] [comp0808:244066:0]            sys.c:618  UCX  ERROR shmget(size=2097152 flags=0xb80) for ucp_am_bufs failed: Operation not permitted, please check shared memory limits by 'ipcs -l'
[1631527664.767582] [comp0808:244068:0]            sys.c:618  UCX  ERROR shmget(size=2097152 flags=0xb80) for ucp_am_bufs failed: Operation not permitted, please check shared memory limits by 'ipcs -l'
-------------------------------------------------------------------------------
                                 ORCA SCF
-------------------------------------------------------------------------------

------------
SCF SETTINGS
------------
Hamiltonian:
 Density Functional     Method          .... DFT(GTOs)
 Exchange Functional    Exchange        .... PBE
   PBE kappa parameter   XKappa         ....  0.804000
   PBE mue parameter    XMuePBE         ....  0.219520
 Correlation Functional Correlation     .... PBE
   PBE beta parameter  CBetaPBE         ....  0.066725
 LDA part of GGA corr.  LDAOpt          .... PW91-LDA
 Gradients option       PostSCFGGA      .... off
 Hybrid DFT is turned on
   Fraction HF Exchange ScalHFX         ....  0.250000
   Scaling of DF-GGA-X  ScalDFX         ....  0.750000
   Scaling of DF-GGA-C  ScalDFC         ....  1.000000
   Scaling of DF-LDA-C  ScalLDAC        ....  1.000000
   Perturbative correction              ....  0.000000
   Density functional embedding theory  .... OFF
   NL short-range parameter             ....  6.900000
 RI-approximation to the Coulomb term is turned on
   Number of auxiliary basis functions  .... 411
   RIJ-COSX (HFX calculated with COS-X)).... on


General Settings:
 Integral files         IntName         .... manual_333_redo_2
 Hartree-Fock type      HFTyp           .... RHF
 Total Charge           Charge          ....   -1
 Multiplicity           Mult            ....    1
 Number of Electrons    NEL             ....  104
 Basis Dimension        Dim             ....  165
 Nuclear Repulsion      ENuc            ....    598.8604149261 Eh

Convergence Acceleration:
 DIIS                   CNVDIIS         .... on
   Start iteration      DIISMaxIt       ....    12
   Startup error        DIISStart       ....  0.200000
   # of expansion vecs  DIISMaxEq       ....     5
   Bias factor          DIISBfac        ....   1.050
   Max. coefficient     DIISMaxC        ....  10.000
 Newton-Raphson         CNVNR           .... off
 SOSCF                  CNVSOSCF        .... on
   Start iteration      SOSCFMaxIt      ....   150
   Startup grad/error   SOSCFStart      ....  0.003300
 Level Shifting         CNVShift        .... on
   Level shift para.    LevelShift      ....    0.2500
   Turn off err/grad.   ShiftErr        ....    0.0010
 Zerner damping         CNVZerner       .... off
 Static damping         CNVDamp         .... on
   Fraction old density DampFac         ....    0.7000
   Max. Damping (<1)    DampMax         ....    0.9800
   Min. Damping (>=0)   DampMin         ....    0.0000
   Turn off err/grad.   DampErr         ....    0.1000
 Fernandez-Rico         CNVRico         .... off

SCF Procedure:
 Maximum # iterations   MaxIter         ....   250
 SCF integral mode      SCFMode         .... Direct
   Integral package                     .... LIBINT
 Reset frequency        DirectResetFreq ....    20
 Integral Threshold     Thresh          ....  2.500e-11 Eh
 Primitive CutOff       TCut            ....  2.500e-12 Eh

Convergence Tolerance:
 Convergence Check Mode ConvCheckMode   .... Total+1el-Energy
 Convergence forced     ConvForced      .... 0
 Energy Change          TolE            ....  1.000e-08 Eh
 1-El. energy change                    ....  1.000e-05 Eh
 Orbital Gradient       TolG            ....  1.000e-05
 Orbital Rotation angle TolX            ....  1.000e-05
 DIIS Error             TolErr          ....  5.000e-07


Diagonalization of the overlap matrix:
Smallest eigenvalue                        ... 2.268e-03
Time for diagonalization                   ...    0.163 sec
Threshold for overlap eigenvalues          ... 1.000e-08
Number of eigenvalues below threshold      ... 0
Time for construction of square roots      ...    0.002 sec
Total time needed                          ...    0.166 sec

-------------------
DFT GRID GENERATION
-------------------

General Integration Accuracy     IntAcc      ...  4.340
Radial Grid Type                 RadialGrid  ... Gauss-Chebyshev
Angular Grid (max. acc.)         AngularGrid ... Lebedev-110
Angular grid pruning method      GridPruning ... 3 (G Style)
Weight generation scheme         WeightScheme... Becke
Basis function cutoff            BFCut       ...    1.0000e-11
Integration weight cutoff        WCut        ...    1.0000e-14
Grids for H and He will be reduced by one unit

# of grid points (after initial pruning)     ...  19550 (   0.0 sec)
# of grid points (after weights+screening)   ...  18346 (   0.0 sec)
nearest neighbour list constructed           ...    0.0 sec
Grid point re-assignment to atoms done       ...    0.0 sec
Grid point division into batches done        ...    0.0 sec
Reduced shell lists constructed in    0.1 sec

Total number of grid points                  ...    18346
Total number of batches                      ...      294
Average number of points per batch           ...       62
Average number of grid points per atom       ...     1223
Average number of shells per batch           ...    54.08 (72.11%)
Average number of basis functions per batch  ...   114.37 (69.32%)
Average number of large shells per batch     ...    45.03 (83.26%)
Average number of large basis fcns per batch ...    92.76 (81.10%)
Maximum spatial batch extension              ...  14.69, 17.85, 17.85 au
Average spatial batch extension              ...   0.69,  0.73,  0.67 au

Time for grid setup =    0.119 sec

------------------------------
INITIAL GUESS: MODEL POTENTIAL
------------------------------
Loading Hartree-Fock densities                     ... done
Calculating cut-offs                               ... done
Setting up the integral package                    ... done
Initializing the effective Hamiltonian             ... done
Starting the Coulomb interaction                   ... done (   0.0 sec)
Reading the grid                                   ... done
Mapping shells                                     ... done
Starting the XC term evaluation                    ... done (   0.0 sec)
  promolecular density results
     # of electrons  =    102.984318278
     EX              =   -201.593985047
     EC              =     -4.478030573
     EX+EC           =   -206.072015621
Transforming the Hamiltonian                       ... done (   0.0 sec)
Diagonalizing the Hamiltonian                      ... done (   0.0 sec)
Back transforming the eigenvectors                 ... done (   0.0 sec)
Now organizing SCF variables                       ... done
                      ------------------
                      INITIAL GUESS DONE (   0.3 sec)
                      ------------------
--------------------
COSX GRID GENERATION
--------------------

General Integration Accuracy     IntAcc      ...  3.340
Radial Grid Type                 RadialGrid  ... Gauss-Chebyshev
Angular Grid (max. acc.)         AngularGrid ... Lebedev-50
Angular grid pruning method      GridPruning ... 3 (G Style)
Weight generation scheme         WeightScheme... Becke
Basis function cutoff            BFCut       ...    1.0000e-11
Integration weight cutoff        WCut        ...    1.0000e-14
Grids for H and He will be reduced by one unit

# of grid points (after initial pruning)     ...   7284 (   0.0 sec)
# of grid points (after weights+screening)   ...   6853 (   0.0 sec)
nearest neighbour list constructed           ...    0.0 sec
Grid point re-assignment to atoms done       ...    0.0 sec
Grid point division into batches done        ...    0.0 sec
Reduced shell lists constructed in    0.0 sec

Total number of grid points                  ...     6853
Total number of batches                      ...      115
Average number of points per batch           ...       59
Average number of grid points per atom       ...      457
Average number of shells per batch           ...    56.60 (75.47%)
Average number of basis functions per batch  ...   121.00 (73.33%)
Average number of large shells per batch     ...    48.60 (85.87%)
Average number of large basis fcns per batch ...   101.27 (83.69%)
Maximum spatial batch extension              ...  14.46, 17.24, 14.37 au
Average spatial batch extension              ...   0.75,  0.81,  0.77 au

Overlap Fitting                  UseSFitting ... on
Constructing numerical overlap ... done (      0.0 sec)
Inverting numerical overlap    ... done (      0.0 sec)
Obtaining analytic overlap     ... done (      0.0 sec)
Final contraction and storage  ... done (      0.0 sec)


General Integration Accuracy     IntAcc      ...  3.670
Radial Grid Type                 RadialGrid  ... Gauss-Chebyshev
Angular Grid (max. acc.)         AngularGrid ... Lebedev-50
Angular grid pruning method      GridPruning ... 3 (G Style)
Weight generation scheme         WeightScheme... Becke
Basis function cutoff            BFCut       ...    1.0000e-11
Integration weight cutoff        WCut        ...    1.0000e-14
Grids for H and He will be reduced by one unit

# of grid points (after initial pruning)     ...   9160 (   0.0 sec)
# of grid points (after weights+screening)   ...   8593 (   0.0 sec)
nearest neighbour list constructed           ...    0.0 sec
Grid point re-assignment to atoms done       ...    0.0 sec
Grid point division into batches done        ...    0.0 sec
Reduced shell lists constructed in    0.0 sec

Total number of grid points                  ...     8593
Total number of batches                      ...      141
Average number of points per batch           ...       60
Average number of grid points per atom       ...      573
Average number of shells per batch           ...    56.00 (74.67%)
Average number of basis functions per batch  ...   119.03 (72.14%)
Average number of large shells per batch     ...    47.49 (84.80%)
Average number of large basis fcns per batch ...    98.30 (82.58%)
Maximum spatial batch extension              ...  20.40, 18.36, 15.13 au
Average spatial batch extension              ...   0.80,  0.79,  0.79 au

Overlap Fitting                  UseSFitting ... on
Constructing numerical overlap ... done (      0.0 sec)
Inverting numerical overlap    ... done (      0.0 sec)
Obtaining analytic overlap     ... done (      0.0 sec)
Final contraction and storage  ... done (      0.0 sec)


General Integration Accuracy     IntAcc      ...  4.010
Radial Grid Type                 RadialGrid  ... Gauss-Chebyshev
Angular Grid (max. acc.)         AngularGrid ... Lebedev-110
Angular grid pruning method      GridPruning ... 3 (G Style)
Weight generation scheme         WeightScheme... Becke
Basis function cutoff            BFCut       ...    1.0000e-11
Integration weight cutoff        WCut        ...    1.0000e-14
Grids for H and He will be reduced by one unit

# of grid points (after initial pruning)     ...  17048 (   0.0 sec)
# of grid points (after weights+screening)   ...  16028 (   0.0 sec)
nearest neighbour list constructed           ...    0.0 sec
Grid point re-assignment to atoms done       ...    0.0 sec
Grid point division into batches done        ...    0.0 sec
Reduced shell lists constructed in    0.0 sec

Total number of grid points                  ...    16028
Total number of batches                      ...      257
Average number of points per batch           ...       62
Average number of grid points per atom       ...     1069
Average number of shells per batch           ...    54.27 (72.36%)
Average number of basis functions per batch  ...   114.79 (69.57%)
Average number of large shells per batch     ...    45.59 (84.00%)
Average number of large basis fcns per batch ...    94.17 (82.04%)
Maximum spatial batch extension              ...  19.33, 19.50, 14.01 au
Average spatial batch extension              ...   0.72,  0.71,  0.68 au

Overlap Fitting                  UseSFitting ... on
Constructing numerical overlap ... done (      0.0 sec)
Inverting numerical overlap    ... done (      0.0 sec)
Obtaining analytic overlap     ... done (      0.0 sec)
Final contraction and storage  ... done (      0.0 sec)

Time for X-Grid setup             =    0.191 sec

--------------------
CPCM SOLVATION MODEL
--------------------
CPCM parameters:
  Epsilon                                         ...      20.7000
  Refrac                                          ...       1.3590
  Rsolv                                           ...       1.3000
  Surface type                                    ...    GEPOL SES
  Epsilon function type                           ...         CPCM
Radii:
 Radius for C  used is    3.7795 Bohr (=   2.0000 Ang.)
 Radius for Br used is    4.0818 Bohr (=   2.1600 Ang.)
 Radius for H  used is    2.4566 Bohr (=   1.3000 Ang.)
Calculating surface                               ...        done! (  0.0s)
GEPOL surface points                              ...          541
GEPOL Volume                                      ...    1168.1463
GEPOL Surface-area                                ...     633.8923
Calculating surface distance matrix               ...        done! (  0.0s)
Performing Cholesky decomposition & store         ...        done! (  0.0s)
Overall time for CPCM initialization              ...                 0.0s
--------------
SCF ITERATIONS
--------------
ITER       Energy         Delta-E        Max-DP      RMS-DP      [F,P]     Damp
               ***  Starting incremental Fock matrix formation  ***
  0  -5304.6132674208   0.000000000000 0.10401068  0.00214361  0.1376721 0.7000
  1  -5304.6810869409  -0.067819520104 0.07900361  0.00160709  0.0765644 0.7000
                               ***Turning on DIIS***
  2  -5304.7139501739  -0.032863232959 0.15558189  0.00312518  0.0384350 0.0000
  3  -5304.7625172814  -0.048567107548 0.03766158  0.00092116  0.0364673 0.0000
  4  -5304.7722708312  -0.009753549782 0.01410235  0.00027505  0.0067748 0.0000
                      *** Initiating the SOSCF procedure ***
                           *** Shutting down DIIS ***
                      *** Re-Reading the Fockian *** 
                      *** Removing any level shift *** 
ITER      Energy       Delta-E        Grad      Rot      Max-DP    RMS-DP
  5  -5304.77270184  -0.0004310123  0.000784  0.000784  0.001277  0.000066
               *** Restarting incremental Fock matrix formation ***
  6  -5304.77271569  -0.0000138431  0.000541  0.004059  0.002154  0.000073
  7  -5304.77272539  -0.0000097057  0.000173  0.001636  0.001632  0.000036
  8  -5304.77272728  -0.0000018890  0.000121  0.000368  0.000228  0.000009
  9  -5304.77272746  -0.0000001826  0.000030  0.000038  0.000160  0.000003
 10  -5304.77272749  -0.0000000262  0.000012  0.000013  0.000063  0.000001
 11  -5304.77272746   0.0000000266  0.000011  0.000008  0.000017  0.000000
                  ***Gradient check signals convergence***
              ***Rediagonalizing the Fockian in SOSCF/NRSCF***

               *****************************************************
               *                     SUCCESS                       *
               *           SCF CONVERGED AFTER  12 CYCLES          *
               *****************************************************

Setting up the final grid:

General Integration Accuracy     IntAcc      ...  4.670
Radial Grid Type                 RadialGrid  ... Gauss-Chebyshev
Angular Grid (max. acc.)         AngularGrid ... Lebedev-302
Angular grid pruning method      GridPruning ... 3 (G Style)
Weight generation scheme         WeightScheme... Becke
Basis function cutoff            BFCut       ...    1.0000e-11
Integration weight cutoff        WCut        ...    1.0000e-14
Grids for H and He will be reduced by one unit

# of grid points (after initial pruning)     ...  74626 (   0.0 sec)
# of grid points (after weights+screening)   ...  68955 (   0.0 sec)
nearest neighbour list constructed           ...    0.0 sec
Grid point re-assignment to atoms done       ...    0.0 sec
Grid point division into batches done        ...    0.3 sec
Reduced shell lists constructed in    0.3 sec

Total number of grid points                  ...    68955
Total number of batches                      ...     1085
Average number of points per batch           ...       63
Average number of grid points per atom       ...     4597
Average number of shells per batch           ...    51.81 (69.07%)
Average number of basis functions per batch  ...   108.71 (65.88%)
Average number of large shells per batch     ...    41.85 (80.77%)
Average number of large basis fcns per batch ...    85.36 (78.52%)
Maximum spatial batch extension              ...  15.34, 14.58, 14.37 au
Average spatial batch extension              ...   0.48,  0.48,  0.46 au

Final grid set up in    0.4 sec
Final integration                            ... done (   0.1 sec)
Change in XC energy                          ...    -0.000439923
Integrated number of electrons               ...   104.000164429
Previous integrated no of electrons          ...   103.994441403
Old exchange energy                            =    -50.826720346 Eh
New exchange energy                            =    -50.826775126 Eh
Exchange energy change after final integration =     -0.000054780 Eh
Total energy after final integration           =  -5304.773222157 Eh
Final COS-X integration done in                =     1.128 sec

----------------
TOTAL SCF ENERGY
----------------

Total Energy       :        -5304.77322216 Eh         -144350.21800 eV

Components:
Nuclear Repulsion  :          598.86041493 Eh           16295.82035 eV
Electronic Energy  :        -5903.63363708 Eh         -160646.03835 eV
One Electron Energy:        -8590.98047730 Eh         -233772.46355 eV
Two Electron Energy:         2687.34684022 Eh           73126.42520 eV
CPCM Dielectric    :           -0.09724151 Eh              -2.64608 eV

Virial components:
Potential Energy   :       -10602.52906327 Eh         -288509.48335 eV
Kinetic Energy     :         5297.75584111 Eh          144159.26535 eV
Virial Ratio       :            2.00132460


DFT components:
N(Alpha)           :       52.000082214370 electrons
N(Beta)            :       52.000082214370 electrons
N(Total)           :      104.000164428741 electrons
E(X)               :     -151.811947483235 Eh       
E(C)               :       -4.531134350480 Eh       
E(XC)              :     -156.343081833715 Eh       
DFET-embed. en.    :        0.000000000000 Eh       
CPCM Solvation Model Properties:
Surface-charge          :            0.97459352
Charge-correction       :           -0.00326872 Eh              -0.08895 eV
Free-energy (cav+disp)  :            0.00401851 Eh               0.10935 eV
Corrected G(solv)       :        -5304.77247237 Eh         -144350.19760 eV

---------------
SCF CONVERGENCE
---------------

  Last Energy change         ...    9.7834e-09  Tolerance :   1.0000e-08
  Last MAX-Density change    ...    3.9968e-15  Tolerance :   1.0000e-07
  Last RMS-Density change    ...    6.9035e-17  Tolerance :   5.0000e-09
  Last Orbital Gradient      ...    1.9950e-06  Tolerance :   1.0000e-05
  Last Orbital Rotation      ...    3.1913e-06  Tolerance :   1.0000e-05

             **** THE GBW FILE WAS UPDATED (manual_333_redo_2.gbw) ****
             **** DENSITY FILE WAS UPDATED (manual_333_redo_2.scfp) ****
             **** ENERGY FILE WAS UPDATED (manual_333_redo_2.en.tmp) ****
             **** THE GBW FILE WAS UPDATED (manual_333_redo_2.gbw) ****
             **** DENSITY FILE WAS UPDATED (manual_333_redo_2.scfp) ****
----------------
ORBITAL ENERGIES
----------------

  NO   OCC          E(Eh)            E(eV) 
   0   2.0000    -483.086951    -13145.4642 
   1   2.0000    -483.077121    -13145.1968 
   2   2.0000     -62.522269     -1701.3174 
   3   2.0000     -62.512250     -1701.0448 
   4   2.0000     -56.310362     -1532.2829 
   5   2.0000     -56.309932     -1532.2711 
   6   2.0000     -56.309905     -1532.2704 
   7   2.0000     -56.300119     -1532.0041 
   8   2.0000     -56.300057     -1532.0024 
   9   2.0000     -56.300014     -1532.0013 
  10   2.0000     -10.347029      -281.5570 
  11   2.0000     -10.235238      -278.5150 
  12   2.0000     -10.235123      -278.5118 
  13   2.0000     -10.234251      -278.4881 
  14   2.0000      -8.666036      -235.8148 
  15   2.0000      -8.655808      -235.5365 
  16   2.0000      -6.473316      -176.1479 
  17   2.0000      -6.471882      -176.1089 
  18   2.0000      -6.471777      -176.1060 
  19   2.0000      -6.462673      -175.8583 
  20   2.0000      -6.461913      -175.8376 
  21   2.0000      -6.461714      -175.8322 
  22   2.0000      -2.560027       -69.6619 
  23   2.0000      -2.559707       -69.6532 
  24   2.0000      -2.559617       -69.6507 
  25   2.0000      -2.558438       -69.6186 
  26   2.0000      -2.558417       -69.6181 
  27   2.0000      -2.549430       -69.3735 
  28   2.0000      -2.549293       -69.3698 
  29   2.0000      -2.549128       -69.3653 
  30   2.0000      -2.548536       -69.3492 
  31   2.0000      -2.548520       -69.3488 
  32   2.0000      -0.862845       -23.4792 
  33   2.0000      -0.727349       -19.7922 
  34   2.0000      -0.726897       -19.7799 
  35   2.0000      -0.677341       -18.4314 
  36   2.0000      -0.664695       -18.0873 
  37   2.0000      -0.553156       -15.0522 
  38   2.0000      -0.476257       -12.9596 
  39   2.0000      -0.475358       -12.9351 
  40   2.0000      -0.475050       -12.9268 
  41   2.0000      -0.411267       -11.1912 
  42   2.0000      -0.409947       -11.1552 
  43   2.0000      -0.388948       -10.5838 
  44   2.0000      -0.381242       -10.3741 
  45   2.0000      -0.378216       -10.2918 
  46   2.0000      -0.234162        -6.3719 
  47   2.0000      -0.233453        -6.3526 
  48   2.0000      -0.233204        -6.3458 
  49   2.0000      -0.224567        -6.1108 
  50   2.0000      -0.224286        -6.1031 
  51   2.0000      -0.222684        -6.0595 
  52   0.0000      -0.089955        -2.4478 
  53   0.0000       0.085832         2.3356 
  54   0.0000       0.124699         3.3932 
  55   0.0000       0.133734         3.6391 
  56   0.0000       0.139798         3.8041 
  57   0.0000       0.143001         3.8913 
  58   0.0000       0.157189         4.2773 
  59   0.0000       0.174804         4.7567 
  60   0.0000       0.181080         4.9274 
  61   0.0000       0.186642         5.0788 
  62   0.0000       0.204244         5.5577 
  63   0.0000       0.276172         7.5150 
  64   0.0000       0.288725         7.8566 
  65   0.0000       0.354468         9.6456 
  66   0.0000       0.401059        10.9134 
  67   0.0000       0.413017        11.2388 
  68   0.0000       0.421534        11.4705 
  69   0.0000       0.457408        12.4467 
  70   0.0000       0.458726        12.4826 
  71   0.0000       0.473450        12.8832 
  72   0.0000       0.507597        13.8124 
  73   0.0000       0.524635        14.2760 
  74   0.0000       0.576929        15.6990 
  75   0.0000       0.591124        16.0853 
  76   0.0000       0.594623        16.1805 
  77   0.0000       0.605090        16.4653 
  78   0.0000       0.606368        16.5001 
  79   0.0000       0.613700        16.6996 
  80   0.0000       0.619939        16.8694 
  81   0.0000       0.621760        16.9190 
  82   0.0000       0.628609        17.1053 
  83   0.0000       0.639756        17.4086 
  84   0.0000       0.647707        17.6250 
  85   0.0000       0.647922        17.6308 
  86   0.0000       0.671234        18.2652 
  87   0.0000       0.675764        18.3885 
  88   0.0000       0.682434        18.5700 
  89   0.0000       0.693272        18.8649 
  90   0.0000       0.699177        19.0256 
  91   0.0000       0.706365        19.2212 
  92   0.0000       0.707364        19.2484 
  93   0.0000       0.723181        19.6788 
  94   0.0000       0.729507        19.8509 
  95   0.0000       0.737068        20.0566 
  96   0.0000       0.753655        20.5080 
  97   0.0000       0.754472        20.5302 
  98   0.0000       0.760368        20.6907 
  99   0.0000       0.768830        20.9209 
 100   0.0000       0.781306        21.2604 
 101   0.0000       0.818062        22.2606 
 102   0.0000       0.845281        23.0013 
 103   0.0000       0.891404        24.2563 
 104   0.0000       0.971902        26.4468 
 105   0.0000       1.036151        28.1951 
 106   0.0000       1.058407        28.8007 
 107   0.0000       1.130129        30.7524 
 108   0.0000       1.147367        31.2214 
 109   0.0000       1.184482        32.2314 
 110   0.0000       1.299780        35.3688 
 111   0.0000       1.463012        39.8106 
 112   0.0000       1.478207        40.2241 
 113   0.0000       1.515629        41.2423 
 114   0.0000       1.530626        41.6505 
 115   0.0000       1.558696        42.4143 
 116   0.0000       1.559179        42.4274 
 117   0.0000       1.605416        43.6856 
 118   0.0000       1.657917        45.1142 
 119   0.0000       1.734898        47.2090 
 120   0.0000       1.763049        47.9750 
 121   0.0000       1.781159        48.4678 
 122   0.0000       1.788810        48.6760 
 123   0.0000       1.795505        48.8582 
 124   0.0000       1.807419        49.1824 
 125   0.0000       1.849167        50.3184 
 126   0.0000       1.855201        50.4826 
 127   0.0000       1.872131        50.9433 
 128   0.0000       1.924127        52.3581 
 129   0.0000       1.933572        52.6152 
 130   0.0000       1.998005        54.3685 
 131   0.0000       2.027277        55.1650 
 132   0.0000       2.060638        56.0728 
 133   0.0000       2.144282        58.3489 
 134   0.0000       2.182490        59.3886 
 135   0.0000       2.194423        59.7133 
 136   0.0000       2.200979        59.8917 
 137   0.0000       2.374214        64.6056 
 138   0.0000       2.378600        64.7250 
 139   0.0000       2.429874        66.1202 
 140   0.0000       2.449187        66.6458 
 141   0.0000       2.471936        67.2648 
 142   0.0000       2.601474        70.7897 
 143   0.0000       2.607485        70.9533 
 144   0.0000       2.660710        72.4016 
 145   0.0000       2.665945        72.5440 
 146   0.0000       2.750950        74.8572 
 147   0.0000       2.886599        78.5483 
 148   0.0000       2.888322        78.5952 
 149   0.0000       2.894688        78.7685 
 150   0.0000       2.943483        80.0962 
 151   0.0000       2.945566        80.1529 
 152   0.0000       2.981217        81.1230 
 153   0.0000       3.066673        83.4484 
 154   0.0000       3.078843        83.7796 
 155   0.0000       3.544041        96.4383 
 156   0.0000       3.551814        96.6498 
 157   0.0000       3.553168        96.6866 
 158   0.0000       3.555388        96.7470 
 159   0.0000       3.581702        97.4631 
 160   0.0000       3.585464        97.5654 
 161   0.0000       3.590383        97.6993 
 162   0.0000       3.618697        98.4697 
 163   0.0000       3.623350        98.5964 
 164   0.0000       3.681537       100.1797 

                    ********************************
                    * MULLIKEN POPULATION ANALYSIS *
                    ********************************

-----------------------
MULLIKEN ATOMIC CHARGES
-----------------------
   0 C :    0.041322
   1 C :   -0.259899
   2 C :    0.055135
   3 C :    0.062208
   4 Br:   -0.858543
   5 H :    0.095492
   6 H :    0.077342
   7 H :    0.081692
   8 H :    0.093804
   9 H :    0.075720
  10 H :    0.074124
  11 H :    0.085396
  12 H :    0.076534
  13 H :    0.076264
  14 Br:   -0.776592
Sum of atomic charges:   -1.0000000

--------------------------------
MULLIKEN REDUCED ORBITAL CHARGES
--------------------------------
  0 C s       :     2.968877  s :     2.968877
      pz      :     1.039641  p :     2.965191
      px      :     0.992843
      py      :     0.932707
      dz2     :     0.005994  d :     0.024610
      dxz     :     0.002415
      dyz     :     0.004034
      dx2y2   :     0.006275
      dxy     :     0.005893
  1 C s       :     3.344106  s :     3.344106
      pz      :     0.613607  p :     2.864793
      px      :     1.118072
      py      :     1.133115
      dz2     :     0.005526  d :     0.051000
      dxz     :     0.008072
      dyz     :     0.008524
      dx2y2   :     0.014567
      dxy     :     0.014311
  2 C s       :     2.965828  s :     2.965828
      pz      :     1.023382  p :     2.954395
      px      :     0.908697
      py      :     1.022315
      dz2     :     0.004879  d :     0.024642
      dxz     :     0.003955
      dyz     :     0.004780
      dx2y2   :     0.007500
      dxy     :     0.003528
  3 C s       :     2.961901  s :     2.961901
      pz      :     1.017599  p :     2.950416
      px      :     0.990765
      py      :     0.942052
      dz2     :     0.004382  d :     0.025474
      dxz     :     0.005840
      dyz     :     0.004415
      dx2y2   :     0.003875
      dxy     :     0.006963
  4 Brs       :     7.995042  s :     7.995042
      pz      :     5.914097  p :    17.862500
      px      :     5.977729
      py      :     5.970675
      dz2     :     2.000411  d :    10.001001
      dxz     :     2.000186
      dyz     :     2.000305
      dx2y2   :     2.000063
      dxy     :     2.000036
  5 H s       :     0.876109  s :     0.876109
      pz      :     0.015736  p :     0.028399
      px      :     0.005756
      py      :     0.006907
  6 H s       :     0.898207  s :     0.898207
      pz      :     0.010704  p :     0.024451
      px      :     0.005838
      py      :     0.007909
  7 H s       :     0.893720  s :     0.893720
      pz      :     0.005297  p :     0.024588
      px      :     0.015283
      py      :     0.004009
  8 H s       :     0.877700  s :     0.877700
      pz      :     0.014738  p :     0.028495
      px      :     0.007691
      py      :     0.006067
  9 H s       :     0.899572  s :     0.899572
      pz      :     0.011279  p :     0.024708
      px      :     0.004480
      py      :     0.008949
 10 H s       :     0.901376  s :     0.901376
      pz      :     0.005652  p :     0.024500
      px      :     0.004708
      py      :     0.014140
 11 H s       :     0.886977  s :     0.886977
      pz      :     0.014348  p :     0.027628
      px      :     0.006603
      py      :     0.006677
 12 H s       :     0.899074  s :     0.899074
      pz      :     0.009229  p :     0.024392
      px      :     0.010676
      py      :     0.004487
 13 H s       :     0.899272  s :     0.899272
      pz      :     0.007179  p :     0.024464
      px      :     0.008303
      py      :     0.008982
 14 Brs       :     7.989933  s :     7.989933
      pz      :     5.870010  p :    17.783197
      px      :     5.953313
      py      :     5.959873
      dz2     :     2.000997  d :    10.003462
      dxz     :     2.001245
      dyz     :     2.000814
      dx2y2   :     2.000112
      dxy     :     2.000294


                     *******************************
                     * LOEWDIN POPULATION ANALYSIS *
                     *******************************

----------------------
LOEWDIN ATOMIC CHARGES
----------------------
   0 C :   -0.063390
   1 C :    0.236287
   2 C :   -0.062014
   3 C :   -0.062986
   4 Br:   -0.834659
   5 H :    0.067183
   6 H :    0.050829
   7 H :    0.056418
   8 H :    0.066081
   9 H :    0.050393
  10 H :    0.053104
  11 H :    0.064320
  12 H :    0.050243
  13 H :    0.050252
  14 Br:   -0.722063

-------------------------------
LOEWDIN REDUCED ORBITAL CHARGES
-------------------------------
  0 C s       :     2.837836  s :     2.837836
      pz      :     1.081464  p :     3.156993
      px      :     1.056335
      py      :     1.019194
      dz2     :     0.015978  d :     0.068561
      dxz     :     0.005628
      dyz     :     0.011634
      dx2y2   :     0.018452
      dxy     :     0.016868
  1 C s       :     2.939742  s :     2.939742
      pz      :     0.587230  p :     2.718908
      px      :     1.059514
      py      :     1.072164
      dz2     :     0.010559  d :     0.105062
      dxz     :     0.014721
      dyz     :     0.014961
      dx2y2   :     0.032438
      dxy     :     0.032382
  2 C s       :     2.837870  s :     2.837870
      pz      :     1.073975  p :     3.155223
      px      :     1.007258
      py      :     1.073989
      dz2     :     0.012374  d :     0.068922
      dxz     :     0.011308
      dyz     :     0.013192
      dx2y2   :     0.022193
      dxy     :     0.009855
  3 C s       :     2.838856  s :     2.838856
      pz      :     1.068164  p :     3.153497
      px      :     1.058238
      py      :     1.027095
      dz2     :     0.010254  d :     0.070633
      dxz     :     0.016781
      dyz     :     0.012469
      dx2y2   :     0.010799
      dxy     :     0.020329
  4 Brs       :     7.990155  s :     7.990155
      pz      :     5.898367  p :    17.843562
      px      :     5.975001
      py      :     5.970193
      dz2     :     2.000379  d :    10.000942
      dxz     :     2.000172
      dyz     :     2.000299
      dx2y2   :     2.000060
      dxy     :     2.000032
  5 H s       :     0.855296  s :     0.855296
      pz      :     0.044583  p :     0.077521
      px      :     0.014460
      py      :     0.018478
  6 H s       :     0.880660  s :     0.880660
      pz      :     0.028873  p :     0.068511
      px      :     0.016484
      py      :     0.023155
  7 H s       :     0.875241  s :     0.875241
      pz      :     0.013756  p :     0.068340
      px      :     0.042782
      py      :     0.011802
  8 H s       :     0.856518  s :     0.856518
      pz      :     0.041535  p :     0.077401
      px      :     0.020847
      py      :     0.015019
  9 H s       :     0.880870  s :     0.880870
      pz      :     0.030176  p :     0.068737
      px      :     0.013318
      py      :     0.025244
 10 H s       :     0.878874  s :     0.878874
      pz      :     0.014624  p :     0.068022
      px      :     0.013880
      py      :     0.039518
 11 H s       :     0.861051  s :     0.861051
      pz      :     0.040067  p :     0.074628
      px      :     0.016908
      py      :     0.017653
 12 H s       :     0.881471  s :     0.881471
      pz      :     0.024325  p :     0.068286
      px      :     0.030799
      py      :     0.013161
 13 H s       :     0.881431  s :     0.881431
      pz      :     0.018492  p :     0.068316
      px      :     0.023566
      py      :     0.026259
 14 Brs       :     7.975979  s :     7.975979
      pz      :     5.841780  p :    17.742779
      px      :     5.947414
      py      :     5.953585
      dz2     :     2.000959  d :    10.003305
      dxz     :     2.001188
      dyz     :     2.000765
      dx2y2   :     2.000107
      dxy     :     2.000286


                      *****************************
                      * MAYER POPULATION ANALYSIS *
                      *****************************

  NA   - Mulliken gross atomic population
  ZA   - Total nuclear charge
  QA   - Mulliken gross atomic charge
  VA   - Mayer's total valence
  BVA  - Mayer's bonded valence
  FA   - Mayer's free valence

  ATOM       NA         ZA         QA         VA         BVA        FA
  0 C      5.9587     6.0000     0.0413     3.8323     3.8323     0.0000
  1 C      6.2599     6.0000    -0.2599     4.0606     4.0606    -0.0000
  2 C      5.9449     6.0000     0.0551     3.8236     3.8236     0.0000
  3 C      5.9378     6.0000     0.0622     3.8204     3.8204    -0.0000
  4 Br    35.8585    35.0000    -0.8585     0.2731     0.2731     0.0000
  5 H      0.9045     1.0000     0.0955     1.0490     1.0490     0.0000
  6 H      0.9227     1.0000     0.0773     1.0050     1.0050     0.0000
  7 H      0.9183     1.0000     0.0817     1.0036     1.0036     0.0000
  8 H      0.9062     1.0000     0.0938     1.0488     1.0488     0.0000
  9 H      0.9243     1.0000     0.0757     1.0089     1.0089     0.0000
 10 H      0.9259     1.0000     0.0741     1.0054     1.0054    -0.0000
 11 H      0.9146     1.0000     0.0854     1.0512     1.0512    -0.0000
 12 H      0.9235     1.0000     0.0765     1.0074     1.0074    -0.0000
 13 H      0.9237     1.0000     0.0763     1.0090     1.0090    -0.0000
 14 Br    35.7766    35.0000    -0.7766     0.4228     0.4228    -0.0000

  Mayer bond orders larger than 0.100000
B(  0-C ,  1-C ) :   1.1090 B(  0-C ,  5-H ) :   0.8725 B(  0-C ,  6-H ) :   0.9453 
B(  0-C ,  7-H ) :   0.9420 B(  1-C ,  2-C ) :   1.1007 B(  1-C ,  3-C ) :   1.1109 
B(  1-C ,  4-Br) :   0.1270 B(  1-C , 14-Br) :   0.2455 B(  2-C ,  8-H ) :   0.8742 
B(  2-C ,  9-H ) :   0.9433 B(  2-C , 10-H ) :   0.9465 B(  3-C , 11-H ) :   0.8630 
B(  3-C , 12-H ) :   0.9465 B(  3-C , 13-H ) :   0.9449 


------------------
HIRSHFELD ANALYSIS
------------------

Total integrated alpha density =     51.997220702
Total integrated beta density  =     51.997220702

  ATOM     CHARGE      SPIN    
   0 C   -0.067037    0.000000
   1 C    0.224929    0.000000
   2 C   -0.065741    0.000000
   3 C   -0.065828    0.000000
   4 Br  -0.788938    0.000000
   5 H    0.049293    0.000000
   6 H    0.050190    0.000000
   7 H    0.054261    0.000000
   8 H    0.049104    0.000000
   9 H    0.048683    0.000000
  10 H    0.052550    0.000000
  11 H    0.047846    0.000000
  12 H    0.049569    0.000000
  13 H    0.049052    0.000000
  14 Br  -0.682375    0.000000

  TOTAL  -0.994441    0.000000

-------
TIMINGS
-------

Total SCF time: 0 days 0 hours 0 min 14 sec 

Total time                  ....      14.233 sec
Sum of individual times     ....      13.820 sec  ( 97.1%)

Fock matrix formation       ....      12.870 sec  ( 90.4%)
  Split-RI-J                ....       1.698 sec  ( 13.2% of F)
  Chain of spheres X        ....       7.689 sec  ( 59.7% of F)
  XC integration            ....       0.606 sec  (  4.7% of F)
    Basis function eval.    ....       0.239 sec  ( 39.4% of XC)
    Density eval.           ....       0.108 sec  ( 17.8% of XC)
    XC-Functional eval.     ....       0.048 sec  (  7.9% of XC)
    XC-Potential eval.      ....       0.163 sec  ( 26.9% of XC)
Diagonalization             ....       0.017 sec  (  0.1%)
Density matrix formation    ....       0.004 sec  (  0.0%)
Population analysis         ....       0.042 sec  (  0.3%)
Initial guess               ....       0.168 sec  (  1.2%)
Orbital Transformation      ....       0.000 sec  (  0.0%)
Orbital Orthonormalization  ....       0.000 sec  (  0.0%)
DIIS solution               ....       0.005 sec  (  0.0%)
SOSCF solution              ....       0.012 sec  (  0.1%)
Grid generation             ....       0.703 sec  (  4.9%)


-------------------------------------------------------------------------------
                          DFT DISPERSION CORRECTION                            
                                                                               
                              DFTD3 V3.1  Rev 1                                
                          USING Becke-Johnson damping                          
-------------------------------------------------------------------------------
The PBE0 functional is recognized
Active option DFTDOPT                   ...         4   

molecular C6(AA) [au] = 3531.881484 


            DFT-D V3
 parameters
 s6 scaling factor         :     1.0000 
 a1 scaling factor         :     0.4145 
 s8 scaling factor         :     1.2177 
 a2 scaling factor         :     4.8593 
 ad hoc parameters k1-k3   :    16.0000     1.3333    -4.0000 

 Edisp/kcal,au: -8.774258487015  -0.013982669448 
 E6   /kcal   :  -5.276359443 
 E8   /kcal   :  -3.497899044 
 % E8         :  39.865466110 

-------------------------   ----------------
Dispersion correction           -0.013982669
-------------------------   ----------------


-------------------------   --------------------
FINAL SINGLE POINT ENERGY     -5304.787204826019
-------------------------   --------------------

[1631527681.156099] [comp0808:244091:0]            sys.c:618  UCX  ERROR shmget(size=2097152 flags=0xfb0) for mm_recv_desc failed: Operation not permitted, please check shared memory limits by 'ipcs -l'
[1631527681.162686] [comp0808:244089:0]            sys.c:618  UCX  ERROR shmget(size=2097152 flags=0xfb0) for mm_recv_desc failed: Operation not permitted, please check shared memory limits by 'ipcs -l'
[1631527681.178965] [comp0808:244090:0]            sys.c:618  UCX  ERROR shmget(size=2097152 flags=0xfb0) for mm_recv_desc failed: Operation not permitted, please check shared memory limits by 'ipcs -l'
[1631527681.179082] [comp0808:244092:0]            sys.c:618  UCX  ERROR shmget(size=2097152 flags=0xfb0) for mm_recv_desc failed: Operation not permitted, please check shared memory limits by 'ipcs -l'
[1631527681.200277] [comp0808:244089:0]            sys.c:618  UCX  ERROR shmget(size=2097152 flags=0xb80) for ucp_am_bufs failed: Operation not permitted, please check shared memory limits by 'ipcs -l'
[...]
     13       0.000020  -0.000072   0.000105   0.000046  -0.000079   0.000094
     14       0.000052  -0.000060  -0.000145  -0.000194   0.000005   0.000032
     15      -0.437500   0.173274  -0.132391   0.010310  -0.164870  -0.109991
     16       0.298650  -0.185507  -0.048667  -0.004581   0.057002   0.080413
     17       0.154004  -0.108705  -0.017469   0.003521   0.031405   0.041737
     18       0.064705   0.280376   0.077950  -0.140484   0.584063  -0.129629
     19       0.334435  -0.105964   0.080463  -0.034468   0.240818   0.123658
     20      -0.306367   0.300939   0.001218  -0.052158   0.109730  -0.152506
     21      -0.077350  -0.003554  -0.013980   0.020037  -0.149960  -0.007859
     22      -0.215727   0.376201  -0.001472  -0.126783   0.294818  -0.307970
     23       0.262763   0.132091   0.110414  -0.109773   0.461059  -0.082023
     24      -0.131209  -0.045099   0.290955   0.087839   0.108009  -0.005223
     25      -0.171807   0.020410   0.379486   0.192362   0.115766   0.192824
     26      -0.055391   0.074297   0.116355   0.122486   0.018386   0.171836
     27       0.009068   0.064375  -0.373583   0.109653   0.052893   0.049218
     28      -0.014185   0.238576  -0.271795   0.337111   0.097017   0.366242
     29       0.016442  -0.058734   0.012284  -0.079492  -0.009769  -0.087059
     30      -0.131764   0.187809   0.256051   0.306426   0.045433   0.386927
     31       0.089547  -0.042051  -0.165679  -0.147050  -0.074726  -0.163773
     32      -0.125352  -0.243090   0.575465  -0.198449  -0.000061  -0.230578
     33       0.281205   0.348288   0.137729  -0.002336  -0.151650  -0.026965
     34       0.189207   0.209177   0.002924  -0.050465  -0.127285   0.009444
     35      -0.029624  -0.037343  -0.063792  -0.037077  -0.000269   0.013845
     36       0.172293   0.176327   0.088500   0.145507  -0.124051  -0.155460
     37      -0.062804  -0.277530  -0.038766   0.419343   0.171611  -0.280758
     38       0.218154   0.127813   0.113456   0.324305  -0.056406  -0.246431
     39      -0.192553  -0.144936  -0.108055  -0.368378   0.144682   0.309549
     40       0.181394   0.259348   0.088245   0.003314  -0.177800  -0.011616
     41      -0.048126  -0.172417   0.038722   0.383331   0.043992  -0.273632
     42       0.000138   0.000039  -0.000071   0.000031  -0.000101  -0.000067
     43       0.000031   0.000137  -0.000018  -0.000087  -0.000084   0.000104
     44      -0.000083  -0.000095  -0.000196   0.000098  -0.000046  -0.000012
                 36         37         38         39         40         41    
      0       0.013065   0.003600  -0.000325   0.035911  -0.002346   0.004928
      1       0.041324   0.010719  -0.001494   0.007216  -0.000268   0.000408
      2      -0.036453  -0.009324   0.001922   0.075745  -0.006037   0.006314
      3       0.000304   0.000464  -0.000640  -0.001378  -0.001338   0.001162
      4       0.000981  -0.000596  -0.000443  -0.002549   0.002674  -0.000887
      5      -0.000262  -0.000080   0.000082   0.000321   0.000454   0.000072
      6       0.000079   0.003412   0.049118  -0.001807   0.001383   0.011694
      7       0.000160  -0.001087  -0.013047   0.002036  -0.002945  -0.031396
      8      -0.000712  -0.000964  -0.005007  -0.006874   0.012130   0.082809
      9      -0.007447   0.030219  -0.002635   0.000592   0.004163   0.000373
     10       0.010175  -0.040268   0.003427  -0.000197  -0.000455   0.000029
     11      -0.006303   0.024924  -0.002152  -0.007317  -0.083708   0.012117
     12      -0.000006   0.000033  -0.000045  -0.000017  -0.000008   0.000060
     13      -0.000007  -0.000013   0.000013  -0.000038   0.000003  -0.000015
     14      -0.000028   0.000199  -0.000089   0.000015  -0.000103   0.000087
     15       0.020961   0.005108  -0.000419  -0.005591   0.001007   0.000987
     16      -0.350781  -0.089768   0.013014   0.199880  -0.017036   0.015834
     17       0.762261   0.194755  -0.026673  -0.422135   0.035100  -0.033810
     18       0.156020   0.038603  -0.001457   0.255544  -0.020325   0.020186
     19      -0.196986  -0.048941   0.002548  -0.329105   0.024406  -0.024859
     20      -0.215776  -0.053025   0.002332  -0.335230   0.025746  -0.024327
     21      -0.331625  -0.084125   0.004572  -0.663893   0.045874  -0.076516
     22       0.046860   0.011247   0.000104   0.082362  -0.006097   0.009759
     23      -0.092559  -0.022940   0.000892  -0.163383   0.010599  -0.018929
     24      -0.000976  -0.022717  -0.320922   0.030518  -0.045413  -0.334227
     25       0.001229   0.030880   0.425159  -0.039871   0.058356   0.435534
     26      -0.002695  -0.031207  -0.411432   0.038105  -0.054762  -0.409777
     27      -0.001416  -0.007021  -0.075223  -0.007845   0.017003   0.102401
     28       0.002841   0.016372   0.178790   0.018404  -0.035088  -0.229879
     29       0.009380   0.049419   0.520380   0.050666  -0.098191  -0.628867
     30      -0.001901  -0.012884  -0.174655  -0.001760   0.006909   0.073607
     31      -0.005105  -0.034384  -0.442604  -0.005098   0.015111   0.173139
     32      -0.000924  -0.004668  -0.055199  -0.001498   0.003048   0.031274
     33       0.076644  -0.301916   0.024583   0.015302   0.176350  -0.025689
     34      -0.093924   0.369519  -0.029734  -0.017396  -0.213464   0.031353
     35       0.174190  -0.682944   0.054491   0.032284   0.382770  -0.057575
     36       0.069378  -0.268153   0.018176  -0.047139  -0.526028   0.065478
     37       0.025314  -0.095265   0.006073  -0.015293  -0.173657   0.022839
     38      -0.053999   0.206129  -0.013854   0.034826   0.379774  -0.046525
     39      -0.054557   0.203093  -0.013553   0.027266   0.326036  -0.047072
     40      -0.056790   0.212432  -0.015111   0.031276   0.355951  -0.050907
     41      -0.043271   0.160146  -0.010984   0.021417   0.245221  -0.035443
     42      -0.000045  -0.000022   0.000001   0.000025  -0.000038  -0.000003
     43       0.000009   0.000014  -0.000020   0.000004   0.000040  -0.000027
     44      -0.000168  -0.000062   0.000108   0.000082  -0.000021   0.000124
                  42         43         44    
      0       0.004123   0.079121   0.000762
      1      -0.002307  -0.044335   0.000161
      2      -0.001180  -0.031124  -0.000377
      3      -0.001848   0.001085  -0.000827
      4       0.000852   0.000209  -0.000298
      5       0.000755  -0.000300   0.000024
      6       0.013832  -0.001036  -0.000440
      7       0.088538  -0.003938  -0.005784
      8       0.031814  -0.002902  -0.000929
      9      -0.004766   0.000397  -0.079306
     10      -0.003727   0.000880  -0.053699
     11       0.001284  -0.000177  -0.001620
     12       0.000038  -0.000011  -0.000007
     13      -0.000017   0.000000   0.000001
     14       0.000060   0.000014  -0.000012
     15       0.001194   0.011896   0.000191
     16      -0.000216  -0.023101   0.000257
     17      -0.000490   0.034825   0.001152
     18      -0.016607  -0.360772  -0.001128
     19       0.020062   0.470372   0.001912
     20       0.022512   0.496424   0.002065
     21      -0.036520  -0.597432  -0.005851
     22       0.004562   0.073831   0.002065
     23      -0.009942  -0.160396  -0.000822
     24       0.107706  -0.000489  -0.008538
     25      -0.128852  -0.001516   0.011376
     26       0.140984  -0.000303  -0.012398
     27       0.065616  -0.006253  -0.003658
     28      -0.141871   0.011636   0.008064
     29      -0.428706   0.033899   0.021104
     30      -0.318186   0.014041   0.021576
     31      -0.785516   0.036089   0.049858
     32      -0.098806   0.005145   0.005522
     33      -0.003102   0.000405   0.002063
     34       0.002744   0.000260  -0.022752
     35      -0.006483   0.001206   0.029331
     36       0.036173  -0.003796   0.490804
     37       0.011692   0.000050   0.163880
     38      -0.027990   0.003619  -0.369963
     39       0.025445  -0.004966   0.455408
     40       0.025080  -0.005261   0.493891
     41       0.018542  -0.003376   0.359934
     42       0.000002   0.000002   0.000009
     43       0.000005  -0.000002   0.000023
     44      -0.000047  -0.000013  -0.000005


-----------
IR SPECTRUM
-----------

 Mode    freq (cm**-1)   T**2         TX         TY         TZ
-------------------------------------------------------------------
   7:        48.04   20.507220  ( -1.799830  -0.595381  -4.112585)
   8:        65.58   24.840156  (  2.522887   3.841278  -1.928672)
   9:        73.52   78.680141  (  2.925959  -1.420419   8.252352)
  10:        77.40   26.294889  (  3.235220  -2.702989  -2.919262)
  11:       136.29    3.022190  ( -0.325417   0.227598  -1.692481)
  12:       169.46    9.347142  ( -1.121804   0.588897  -2.782427)
  13:       204.03    0.818544  (  0.210612   0.190754  -0.858953)
  14:       214.94    3.983947  (  0.444605  -0.625518   1.842553)
  15:       298.55   41.196932  ( -1.526541   1.511756  -6.048239)
  16:       396.25    1.849521  (  0.250084   0.113035  -1.331992)
  17:       409.28    7.306531  ( -0.601679   0.060064  -2.634560)
  18:       695.33    1.235053  ( -0.787183  -0.024157   0.784100)
  19:       807.29   17.103057  ( -0.389135  -2.640624   3.158913)
  20:       848.62    4.288178  (  1.739947  -0.317360  -1.077054)
  21:       968.22   14.460754  ( -2.064553   2.107605  -2.399245)
  22:       979.20   52.855324  ( -0.214832   3.017361  -6.610953)
  23:      1016.11   62.537019  (  2.166671  -3.730894   6.627442)
  24:      1063.35  407.754621  (  6.162755  -6.485776  18.102756)
  25:      1265.98   61.557469  (  6.848124  -1.413730  -3.558375)
  26:      1274.67   12.943268  (  1.133279   3.378499  -0.494662)
  27:      1303.28   28.443737  ( -0.858294   5.049017   1.488118)
  28:      1312.33  243.522069  ( 13.237841  -6.405751  -5.219959)
  29:      1348.85  163.022555  ( -5.520416 -11.046555  -3.243637)
  30:      1386.64    3.701906  ( -1.357884   1.363082   0.008026)
  31:      1399.07    1.152729  (  0.644657  -0.193906  -0.836389)
  32:      1412.81    8.896661  ( -0.546927  -2.898664  -0.441905)
  33:      1439.80    4.412824  (  1.029999   1.788102   0.393215)
  34:      1463.14   28.273106  (  4.446189   2.786548   0.860038)
  35:      1472.39   24.353379  (  2.106397  -2.910341  -3.383251)
  36:      3040.43    7.729737  ( -1.406875  -2.025317  -1.283951)
  37:      3045.79    6.751514  ( -1.201493   1.302074   1.900666)
  38:      3070.13    6.121521  ( -2.091700   1.304824   0.209158)
  39:      3154.96    2.353362  (  0.575947   0.876880   1.119253)
  40:      3158.54    6.112483  (  0.069684  -0.799589  -2.338437)
  41:      3162.65   12.527650  ( -0.543118  -0.264549   3.487504)
  42:      3208.23    9.312866  (  2.939557   0.767081   0.288890)
  43:      3218.64    1.575505  ( -0.307240  -1.139173  -0.428244)
  44:      3221.30    0.600434  ( -0.532561  -0.469649  -0.310229)

The first frequency considered to be a vibration is 7
The total number of vibrations considered is 38


--------------------------
THERMOCHEMISTRY AT 298.15K
--------------------------

Temperature         ... 298.15 K
Pressure            ... 1.00 atm
Total Mass          ... 216.92 AMU

Throughout the following assumptions are being made:
  (1) The electronic state is orbitally nondegenerate
  (2) There are no thermally accessible electronically excited states
  (3) Hindered rotations indicated by low frequency modes are not
      treated as such but are treated as vibrations and this may
      cause some error
  (4) All equations used are the standard statistical mechanics
      equations for an ideal gas
  (5) All vibrations are strictly harmonic

freq.      48.04  E(vib)   ...       0.53 
freq.      65.58  E(vib)   ...       0.50 
freq.      73.52  E(vib)   ...       0.49 
freq.      77.40  E(vib)   ...       0.49 
freq.     136.29  E(vib)   ...       0.42 
freq.     169.46  E(vib)   ...       0.38 
freq.     204.03  E(vib)   ...       0.35 
freq.     214.94  E(vib)   ...       0.34 
freq.     298.55  E(vib)   ...       0.26 
freq.     396.25  E(vib)   ...       0.20 
freq.     409.28  E(vib)   ...       0.19 
freq.     695.33  E(vib)   ...       0.07 
freq.     807.29  E(vib)   ...       0.05 
freq.     848.62  E(vib)   ...       0.04 
freq.     968.22  E(vib)   ...       0.03 
freq.     979.20  E(vib)   ...       0.03 
freq.    1016.11  E(vib)   ...       0.02 
freq.    1063.35  E(vib)   ...       0.02 
freq.    1265.98  E(vib)   ...       0.01 
freq.    1274.67  E(vib)   ...       0.01 
freq.    1303.28  E(vib)   ...       0.01 
freq.    1312.33  E(vib)   ...       0.01 
freq.    1348.85  E(vib)   ...       0.01 
freq.    1386.64  E(vib)   ...       0.00 
freq.    1399.07  E(vib)   ...       0.00 
freq.    1412.81  E(vib)   ...       0.00 
freq.    1439.80  E(vib)   ...       0.00 
freq.    1463.14  E(vib)   ...       0.00 
freq.    1472.39  E(vib)   ...       0.00 
freq.    3040.43  E(vib)   ...       0.00 
freq.    3045.79  E(vib)   ...       0.00 
freq.    3070.13  E(vib)   ...       0.00 
freq.    3154.96  E(vib)   ...       0.00 
freq.    3158.54  E(vib)   ...       0.00 
freq.    3162.65  E(vib)   ...       0.00 
freq.    3208.23  E(vib)   ...       0.00 
freq.    3218.64  E(vib)   ...       0.00 
freq.    3221.30  E(vib)   ...       0.00 

------------
INNER ENERGY
------------

The inner energy is: U= E(el) + E(ZPE) + E(vib) + E(rot) + E(trans)
    E(el)   - is the total energy from the electronic structure calculation
              = E(kin-el) + E(nuc-el) + E(el-el) + E(nuc-nuc)
    E(ZPE)  - the the zero temperature vibrational energy from the frequency calculation
    E(vib)  - the the finite temperature correction to E(ZPE) due to population
              of excited vibrational states
    E(rot)  - is the rotational thermal energy
    E(trans)- is the translational thermal energy

Summary of contributions to the inner energy U:
Electronic energy                ...  -5304.78903814 Eh
Zero point energy                ...      0.11807993 Eh      74.10 kcal/mol
Thermal vibrational correction   ...      0.00710988 Eh       4.46 kcal/mol
Thermal rotational correction    ...      0.00141627 Eh       0.89 kcal/mol
Thermal translational correction ...      0.00141627 Eh       0.89 kcal/mol
-----------------------------------------------------------------------
Total thermal energy                  -5304.66101579 Eh


Summary of corrections to the electronic energy:
(perhaps to be used in another calculation)
Total thermal correction                  0.00994242 Eh       6.24 kcal/mol
Non-thermal (ZPE) correction              0.11807993 Eh      74.10 kcal/mol
-----------------------------------------------------------------------
Total correction                          0.12802235 Eh      80.34 kcal/mol


--------
ENTHALPY
--------

The enthalpy is H = U + kB*T
                kB is Boltzmann's constant
Total free energy                 ...  -5304.66101579 Eh 
Thermal Enthalpy correction       ...      0.00094421 Eh       0.59 kcal/mol
-----------------------------------------------------------------------
Total Enthalpy                    ...  -5304.66007158 Eh


Note: Only C1 symmetry has been detected, increase convergence thresholds 
      if your molecule has a higher symmetry. Symmetry factor of 1.0 is   
      used for the rotational entropy correction. 
 

Note: Rotational entropy computed according to Herzberg 
Infrared and Raman Spectra, Chapter V,1, Van Nostrand Reinhold, 1945 
Point Group:  C1, Symmetry Number:   1  
Rotational constants in cm-1:     0.147862     0.010963     0.010950 

Vibrational entropy computed according to the QRRHO of S. Grimme
Chem.Eur.J. 2012 18 9955


-------
ENTROPY
-------

The entropy contributions are T*S = T*(S(el)+S(vib)+S(rot)+S(trans))
     S(el)   - electronic entropy
     S(vib)  - vibrational entropy
     S(rot)  - rotational entropy
     S(trans)- translational entropy
The entropies will be listed as mutliplied by the temperature to get
units of energy

Electronic entropy                ...      0.00000000 Eh      0.00 kcal/mol
Vibrational entropy               ...      0.01317270 Eh      8.27 kcal/mol
Rotational entropy                ...      0.01467508 Eh      9.21 kcal/mol
Translational entropy             ...      0.01996792 Eh     12.53 kcal/mol
-----------------------------------------------------------------------
Final entropy term                ...      0.04781569 Eh     30.00 kcal/mol

In case the symmetry of your molecule has not been determined correctly
or in case you have a reason to use a different symmetry number we print 
out the resulting rotational entropy values for sn=1,12 :
 --------------------------------------------------------
|  sn= 1 | S(rot)=       0.01467508 Eh      9.21 kcal/mol|
|  sn= 2 | S(rot)=       0.01402062 Eh      8.80 kcal/mol|
|  sn= 3 | S(rot)=       0.01363779 Eh      8.56 kcal/mol|
|  sn= 4 | S(rot)=       0.01336617 Eh      8.39 kcal/mol|
|  sn= 5 | S(rot)=       0.01315548 Eh      8.26 kcal/mol|
|  sn= 6 | S(rot)=       0.01298333 Eh      8.15 kcal/mol|
|  sn= 7 | S(rot)=       0.01283779 Eh      8.06 kcal/mol|
|  sn= 8 | S(rot)=       0.01271171 Eh      7.98 kcal/mol|
|  sn= 9 | S(rot)=       0.01260050 Eh      7.91 kcal/mol|
|  sn=10 | S(rot)=       0.01250102 Eh      7.84 kcal/mol|
|  sn=11 | S(rot)=       0.01241103 Eh      7.79 kcal/mol|
|  sn=12 | S(rot)=       0.01232888 Eh      7.74 kcal/mol|
 --------------------------------------------------------


-------------------
GIBBS FREE ENERGY
-------------------

The Gibbs free energy is G = H - T*S

Total enthalpy                    ...  -5304.66007158 Eh 
Total entropy correction          ...     -0.04781569 Eh    -30.00 kcal/mol
-----------------------------------------------------------------------
Final Gibbs free energy         ...  -5304.70788728 Eh

For completeness - the Gibbs free energy minus the electronic energy
G-E(el)                           ...      0.08115087 Eh     50.92 kcal/mol

[1631528577.974680] [comp0808:247340:0]            sys.c:618  UCX  ERROR shmget(size=2097152 flags=0xfb0) for mm_recv_desc failed: Operation not permitted, please check shared memory limits by 'ipcs -l'
[1631528577.978404] [comp0808:247338:0]            sys.c:618  UCX  ERROR shmget(size=2097152 flags=0xfb0) for mm_recv_desc failed: Operation not permitted, please check shared memory limits by 'ipcs -l'
[1631528577.991280] [comp0808:247341:0]            sys.c:618  UCX  ERROR shmget(size=2097152 flags=0xfb0) for mm_recv_desc failed: Operation not permitted, please check shared memory limits by 'ipcs -l'
[1631528577.991423] [comp0808:247339:0]            sys.c:618  UCX  ERROR shmget(size=2097152 flags=0xfb0) for mm_recv_desc failed: Operation not permitted, please check shared memory limits by 'ipcs -l'
[1631528578.012176] [comp0808:247339:0]            sys.c:618  UCX  ERROR shmget(size=2097152 flags=0xb80) for ucp_am_bufs failed: Operation not permitted, please check shared memory limits by 'ipcs -l'
[1631528578.012804] [comp0808:247338:0]            sys.c:618  UCX  ERROR shmget(size=2097152 flags=0xb80) for ucp_am_bufs failed: Operation not permitted, please check shared memory limits by 'ipcs -l'
[1631528578.013686] [comp0808:247340:0]            sys.c:618  UCX  ERROR shmget(size=2097152 flags=0xb80) for ucp_am_bufs failed: Operation not permitted, please check shared memory limits by 'ipcs -l'

Timings for individual modules:

Sum of individual times         ...      905.214 sec (=  15.087 min)
GTO integral calculation        ...       53.450 sec (=   0.891 min)   5.9 %
SCF iterations                  ...      438.445 sec (=   7.307 min)  48.4 %
SCF Gradient evaluation         ...      159.395 sec (=   2.657 min)  17.6 %
Geometry relaxation             ...        7.563 sec (=   0.126 min)   0.8 %
Analytical frequency calculation...      246.361 sec (=   4.106 min)  27.2 %
                             ****ORCA TERMINATED NORMALLY****
TOTAL RUN TIME: 0 days 0 hours 15 minutes 19 seconds 8 msec
