
                                 *****************
                                 * O   R   C   A *
                                 *****************

           --- An Ab Initio, DFT and Semiempirical electronic structure package ---

                  #######################################################
                  #                        -***-                        #
                  #          Department of theory and spectroscopy      #
                  #               Directorship: Frank Neese             #
                  #        Max Planck Institute fuer Kohlenforschung    #
                  #                Kaiser Wilhelm Platz 1               #
                  #                 D-45470 Muelheim/Ruhr               #
                  #                      Germany                        #
                  #                                                     #
                  #                  All rights reserved                #
                  #                        -***-                        #
                  #######################################################


                         Program Version 4.2.1 -  RELEASE  -


 With contributions from (in alphabetic order):
   Daniel Aravena         : Magnetic Suceptibility
   Michael Atanasov       : Ab Initio Ligand Field Theory (pilot matlab implementation)
   Alexander A. Auer      : GIAO ZORA, VPT2
   Ute Becker             : Parallelization
   Giovanni Bistoni       : ED, misc. LED, open-shell LED, HFLD
   Martin Brehm           : Molecular dynamics
   Dmytro Bykov           : SCF Hessian
   Vijay G. Chilkuri      : MRCI spin determinant printing, contributions to CSF-ICE
   Dipayan Datta          : RHF DLPNO-CCSD density
   Achintya Kumar Dutta   : EOM-CC, STEOM-CC
   Dmitry Ganyushin       : Spin-Orbit,Spin-Spin,Magnetic field MRCI
   Miquel Garcia          : C-PCM Hessian, Gaussian charge scheme
   Yang Guo               : DLPNO-NEVPT2, CIM, IAO-localization
   Andreas Hansen         : Spin unrestricted coupled pair/coupled cluster methods
   Benjamin Helmich-Paris : CASSCF linear response (MC-RPA)
   Lee Huntington         : MR-EOM, pCC
   Robert Izsak           : Overlap fitted RIJCOSX, COSX-SCS-MP3, EOM
   Christian Kollmar      : KDIIS, OOCD, Brueckner-CCSD(T), CCSD density
   Simone Kossmann        : Meta GGA functionals, TD-DFT gradient, OOMP2, MP2 Hessian
   Martin Krupicka        : AUTO-CI
   Lucas Lang             : DCDCAS
   Dagmar Lenk            : GEPOL surface, SMD
   Dimitrios Liakos       : Extrapolation schemes; Compound Job, initial MDCI parallelization
   Dimitrios Manganas     : Further ROCIS development; embedding schemes
   Dimitrios Pantazis     : SARC Basis sets
   Taras Petrenko         : DFT Hessian,TD-DFT gradient, ASA, ECA, R-Raman, ABS, FL, XAS/XES, NRVS
   Peter Pinski           : DLPNO-MP2, DLPNO-MP2 Gradient
   Christoph Reimann      : Effective Core Potentials
   Marius Retegan         : Local ZFS, SOC
   Christoph Riplinger    : Optimizer, TS searches, QM/MM, DLPNO-CCSD(T), (RO)-DLPNO pert. Triples
   Tobias Risthaus        : Range-separated hybrids, TD-DFT gradient, RPA, STAB
   Michael Roemelt        : Original ROCIS implementation
   Masaaki Saitow         : Open-shell DLPNO-CCSD energy and density
   Barbara Sandhoefer     : DKH picture change effects
   Avijit Sen             : IP-ROCIS
   Kantharuban Sivalingam : CASSCF convergence, NEVPT2, FIC-MRCI
   Bernardo de Souza      : ESD, SOC TD-DFT
   Georgi Stoychev        : AutoAux, RI-MP2 NMR
   Willem Van den Heuvel  : Paramagnetic NMR
   Boris Wezisla          : Elementary symmetry handling
   Frank Wennmohs         : Technical directorship


 We gratefully acknowledge several colleagues who have allowed us to
 interface, adapt or use parts of their codes:
   Stefan Grimme, W. Hujo, H. Kruse,             : VdW corrections, initial TS optimization,
                  C. Bannwarth                     DFT functionals, gCP, sTDA/sTD-DF
   Ed Valeev, F. Pavosevic, A. Kumar             : LibInt (2-el integral package), F12 methods
   Garnet Chan, S. Sharma, J. Yang, R. Olivares  : DMRG
   Ulf Ekstrom                                   : XCFun DFT Library
   Mihaly Kallay                                 : mrcc  (arbitrary order and MRCC methods)
   Andreas Klamt, Michael Diedenhofen            : otool_cosmo (COSMO solvation model)
   Jiri Pittner, Ondrej Demel                    : Mk-CCSD
   Frank Weinhold                                : gennbo (NPA and NBO analysis)
   Christopher J. Cramer and Donald G. Truhlar   : smd solvation model
   Lars Goerigk                                  : TD-DFT with DH, B97 family of functionals
   V. Asgeirsson, H. Jonsson                     : NEB implementation
   FAccTs GmbH                                   : IRC, NEB, NEB-TS, Multilevel, MM, QM/MM, CI optimization
   S Lehtola, MJT Oliveira, MAL Marques          : LibXC Library


 Your calculation uses the libint2 library for the computation of 2-el integrals
 For citations please refer to: http://libint.valeyev.net

 Your ORCA version has been built with support for libXC version: 4.2.3
 For citations please refer to: https://tddft.org/programs/libxc/

 This ORCA versions uses:
   CBLAS   interface :  Fast vector & matrix operations
   LAPACKE interface :  Fast linear algebra routines
   SCALAPACK package :  Parallel linear algebra routines


Your calculation utilizes the atom-pairwise dispersion correction
with the Becke-Johnson damping scheme (D3BJ)
Cite in your paper:
S.Grimme, S.Ehrlich, L.Goerigk, J Comput Chem, (2011), 32, 1456–1465 
S.Grimme, J.Antony, S.Ehrlich and H.Krieg, J.Chem.Phys., 132, (2010), 154104 
   

----- Orbital basis set information -----
Your calculation utilizes the basis: def2-SVP
   F. Weigend and R. Ahlrichs, Phys. Chem. Chem. Phys. 7, 3297 (2005).

----- AuxJ basis set information -----
Your calculation utilizes the auxiliary basis: def2/J
   F. Weigend, Phys. Chem. Chem. Phys. 8, 1057 (2006).

================================================================================
                                        WARNINGS
                       Please study these warnings very carefully!
================================================================================


WARNING: Geometry Optimization
  ===> : Switching off AutoStart
         For restart on a previous wavefunction, please use MOREAD

INFO   : the flag for use of LIBINT has been found!

================================================================================
                                       INPUT FILE
================================================================================
NAME = manual_332.inp
|  1> ! OptTS Freq PBE0 RIJCOSX D3BJ def2-SVP def2/J CPCM(Acetone)
|  2> %geom
|  3> modify_internal
|  4> { B 1 11 A } end
|  5> end
|  6> %geom
|  7> modify_internal
|  8> { B 1 3 A } end
|  9> end
| 10> %output 
| 11> xyzfile=True 
| 12> end 
| 13> %scf 
| 14> maxiter 250 
| 15> end
| 16> %output
| 17> Print[P_Hirshfeld] = 1
| 18> end
| 19> % maxcore
| 20> 4000
| 21> %geom
| 22> Calc_Hess true
| 23> Recalc_Hess 30
| 24> Trust -0.1
| 25> MaxIter 150
| 26> end
| 27> %pal nprocs 4
| 28> end
| 29> *xyz -1 1
| 30> C     1.17254  -1.32051  -0.31230
| 31> C    -0.04721  -0.70626   0.29156
| 32> C    -1.40438  -1.11927  -0.17621
| 33> Br    0.08062   1.52831  -1.00237
| 34> H     2.08710  -0.83601   0.05168
| 35> H     1.13613  -1.24924  -1.40924
| 36> H     1.20343  -2.38405  -0.03444
| 37> H     0.05212  -0.00814   1.11249
| 38> H    -2.19279  -0.53734   0.31610
| 39> H    -1.54787  -2.18276   0.06381
| 40> H    -1.48686  -0.99370  -1.26560
| 41> Br   -0.06588  -2.14581   2.35898
| 42> *
| 43> 
| 44>                          ****END OF INPUT****
================================================================================

                       *****************************
                       * Geometry Optimization Run *
                       *****************************

Geometry optimization settings:
Update method            Update   .... Bofill
Choice of coordinates    CoordSys .... Z-matrix Internals
Initial Hessian          InHess   .... Almoef's Model

Convergence Tolerances:
Energy Change            TolE     ....  5.0000e-06 Eh
Max. Gradient            TolMAXG  ....  3.0000e-04 Eh/bohr
RMS Gradient             TolRMSG  ....  1.0000e-04 Eh/bohr
Max. Displacement        TolMAXD  ....  4.0000e-03 bohr
RMS Displacement         TolRMSD  ....  2.0000e-03 bohr
Strict Convergence                ....  False
------------------------------------------------------------------------------
                        ORCA OPTIMIZATION COORDINATE SETUP
------------------------------------------------------------------------------

The optimization will be done in new redundant internal coordinates
Making redundant internal coordinates   ...  (new redundants) Bond  11,  1 is already included
Bond   3,  1 is already included
done
Following TS mode number                ...     0
Evaluating the initial hessian          ...  (Is done on the fly) done
Evaluating the coordinates              ...  done
Calculating the B-matrix                .... done
Calculating the G-matrix                .... done
Diagonalizing the G-matrix              .... done
The first mode is                       ....  123
The number of degrees of freedom        ....   30

    -----------------------------------------------------------------
                    Redundant Internal Coordinates


    -----------------------------------------------------------------
         Definition                    Initial Value    d2E/dq (diagonal element)
    -----------------------------------------------------------------
      1. B(C   1,C   0)                  1.4932         0.000000   
      2. B(C   2,C   1)                  1.4938         0.000000   
      3. B(Br  3,C   1)                  2.5853         0.000000   
      4. B(Br  3,C   0)                  3.1280         0.000000   
      5. B(Br  3,C   2)                  3.1460         0.000000   
      6. B(H   4,Br  3)                  3.2752         0.000000   
      7. B(H   4,C   0)                  1.0971         0.000000   
      8. B(H   5,Br  3)                  2.9991         0.000000   
      9. B(H   5,C   0)                  1.0999         0.000000   
     10. B(H   6,C   0)                  1.0997         0.000000   
     11. B(H   7,C   1)                  1.0822         0.000000   
     12. B(H   7,Br  3)                  2.6142         0.000000   
     13. B(H   8,C   2)                  1.0966         0.000000   
     14. B(H   8,Br  3)                  3.3427         0.000000   
     15. B(H   9,C   2)                  1.0996         0.000000   
     16. B(H  10,Br  3)                  2.9811         0.000000   
     17. B(H  10,C   2)                  1.0997         0.000000   
     18. B(Br 11,H   9)                  2.7323         0.000000   
     19. B(Br 11,H   7)                  2.4774         0.000000   
     20. B(Br 11,H   6)                  2.7196         0.000000   
     21. B(Br 11,C   2)                  3.0451         0.000000   
     22. B(Br 11,C   1)                  2.5193         0.000000   
     23. B(Br 11,C   0)                  3.0579         0.000000   
     24. A(Br  3,C   0,Br 11)          107.2866         0.000000   
     25. A(H   4,C   0,Br 11)           99.6121         0.000000   
     26. A(C   1,C   0,H   6)          108.5785         0.000000   
     27. A(H   4,C   0,H   6)          108.6545         0.000000   
     28. A(Br  3,C   0,H   5)           73.1061         0.000000   
     29. A(C   1,C   0,H   5)          110.4646         0.000000   
     30. A(Br  3,C   0,H   6)          161.1519         0.000000   
     31. A(H   4,C   0,H   5)          109.2605         0.000000   
     32. A(H   5,C   0,Br 11)          151.0856         0.000000   
     33. A(H   6,C   0,Br 11)           61.9410         0.000000   
     34. A(C   1,C   0,Br  3)           55.2095         0.000000   
     35. A(Br  3,C   0,H   4)           87.8214         0.000000   
     36. A(C   1,C   0,H   4)          111.4144         0.000000   
     37. A(H   5,C   0,H   6)          108.3974         0.000000   
     38. A(C   1,C   0,Br 11)           55.0353         0.000000   
     39. A(H   7,C   1,Br 11)           75.3320         0.000000   
     40. A(Br  3,C   1,Br 11)          154.8192         0.000000   
     41. A(C   0,C   1,Br 11)           95.9041         0.000000   
     42. A(C   2,C   1,Br 11)           95.2936         0.000000   
     43. A(C   2,C   1,H   7)          119.9539         0.000000   
     44. A(Br  3,C   1,H   7)           79.4875         0.000000   
     45. A(C   2,C   1,Br  3)           97.3063         0.000000   
     46. A(C   0,C   1,Br  3)           96.4745         0.000000   
     47. A(C   0,C   1,H   7)          119.8118         0.000000   
     48. A(C   0,C   1,C   2)          120.1184         0.000000   
     49. A(H   9,C   2,H  10)          108.4737         0.000000   
     50. A(H   8,C   2,H  10)          109.2812         0.000000   
     51. A(H  10,C   2,Br 11)          153.6638         0.000000   
     52. A(H   9,C   2,Br 11)           63.2309         0.000000   
     53. A(C   1,C   2,H  10)          110.2910         0.000000   
     54. A(H   8,C   2,Br 11)           96.9585         0.000000   
     55. A(C   1,C   2,Br 11)           55.4675         0.000000   
     56. A(H   8,C   2,H   9)          108.7480         0.000000   
     57. A(C   1,C   2,H   9)          108.5183         0.000000   
     58. A(Br  3,C   2,Br 11)          107.1486         0.000000   
     59. A(Br  3,C   2,H   9)          158.8773         0.000000   
     60. A(Br  3,C   2,H   8)           90.6113         0.000000   
     61. A(C   1,C   2,Br  3)           54.5976         0.000000   
     62. A(C   1,C   2,H   8)          111.4628         0.000000   
     63. A(Br  3,C   2,H  10)           71.2866         0.000000   
     64. A(C   1,Br  3,C   2)           28.0961         0.000000   
     65. A(C   0,Br  3,C   2)           48.7293         0.000000   
     66. A(C   0,Br  3,C   1)           28.3160         0.000000   
     67. A(C   1,Br 11,C   2)           29.2389         0.000000   
     68. A(C   0,Br 11,C   2)           50.1886         0.000000   
     69. A(C   0,Br 11,C   1)           29.0606         0.000000   
     70. D(Br 11,C   1,C   0,H   6)     32.7982         0.000000   
     71. D(H   7,C   1,C   0,H   5)   -132.0039         0.000000   
     72. D(Br  3,C   1,C   0,H   6)   -169.1730         0.000000   
     73. D(H   7,C   1,C   0,H   4)    -10.3659         0.000000   
     74. D(Br 11,C   1,C   0,H   4)    -86.8248         0.000000   
     75. D(Br 11,C   1,C   0,Br  3)   -158.0287         0.000000   
     76. D(H   7,C   1,C   0,Br 11)     76.4589         0.000000   
     77. D(C   2,C   1,C   0,H   4)    173.5491         0.000000   
     78. D(H   7,C   1,C   0,Br  3)    -81.5698         0.000000   
     79. D(C   2,C   1,C   0,H   6)    -66.8279         0.000000   
     80. D(C   2,C   1,C   0,H   5)     51.9111         0.000000   
     81. D(Br  3,C   1,C   0,Br 11)    158.0287         0.000000   
     82. D(H   7,C   1,C   0,H   6)    109.2571         0.000000   
     83. D(C   2,C   1,C   0,Br 11)    -99.6261         0.000000   
     84. D(Br 11,C   1,C   0,H   5)    151.5372         0.000000   
     85. D(Br  3,C   1,C   0,H   5)    -50.4341         0.000000   
     86. D(Br  3,C   1,C   0,H   4)     71.2039         0.000000   
     87. D(C   2,C   1,C   0,Br  3)    102.3452         0.000000   
     88. D(H  10,C   2,C   1,Br  3)     46.9660         0.000000   
     89. D(H  10,C   2,C   1,H   7)    129.0099         0.000000   
     90. D(H   9,C   2,C   1,C   0)     63.7827         0.000000   
     91. D(H   9,C   2,C   1,H   7)   -112.2967         0.000000   
     92. D(H   9,C   2,C   1,Br  3)    165.6594         0.000000   
     93. D(H   8,C   2,C   1,Br  3)    -74.6113         0.000000   
     94. D(H  10,C   2,C   1,C   0)    -54.9107         0.000000   
     95. D(Br  3,C   2,C   1,H   7)     82.0439         0.000000   
     96. D(H   9,C   2,C   1,Br 11)    -36.1899         0.000000   
     97. D(H   8,C   2,C   1,C   0)   -176.4881         0.000000   
     98. D(Br  3,C   2,C   1,Br 11)    158.1507         0.000000   
     99. D(Br 11,C   2,C   1,C   0)     99.9726         0.000000   
    100. D(H   8,C   2,C   1,H   7)      7.4325         0.000000   
    101. D(Br  3,C   2,C   1,C   0)   -101.8767         0.000000   
    102. D(H   8,C   2,C   1,Br 11)     83.5393         0.000000   
    103. D(Br 11,C   2,C   1,Br  3)   -158.1507         0.000000   
    104. D(Br 11,C   2,C   1,H   7)    -76.1068         0.000000   
    105. D(H  10,C   2,C   1,Br 11)   -154.8834         0.000000   
    106. D(C   1,Br  3,C   2,Br 11)     18.7148         0.000000   
    107. D(C   1,Br  3,C   2,H   9)    -40.6719         0.000000   
    108. D(C   1,Br  3,C   2,H   8)    116.1894         0.000000   
    109. D(C   0,Br  3,C   2,Br 11)     51.2376         0.000000   
    110. D(C   0,Br  3,C   2,H   9)     -8.1491         0.000000   
    111. D(C   0,Br  3,C   2,H   8)    148.7122         0.000000   
    112. D(C   0,Br  3,C   2,C   1)     32.5229         0.000000   
    113. D(C   2,Br  3,C   1,Br 11)   -119.4275         0.000000   
    114. D(C   2,Br  3,C   1,H   7)   -119.2218         0.000000   
    115. D(C   2,Br  3,C   1,C   0)    121.5804         0.000000   
    116. D(C   0,Br  3,C   1,Br 11)    118.9922         0.000000   
    117. D(C   0,Br  3,C   1,H   7)    119.1978         0.000000   
    118. D(C   0,Br  3,C   1,C   2)   -121.5804         0.000000   
    119. D(C   2,Br  3,C   0,Br 11)    -50.9932         0.000000   
    120. D(C   2,Br  3,C   0,H   6)      1.1832         0.000000   
    121. D(C   2,Br  3,C   0,H   5)     98.7282         0.000000   
    122. D(C   2,Br  3,C   0,H   4)   -150.3837         0.000000   
    123. D(C   0,Br  3,C   2,H  10)   -101.1035         0.000000   
    124. D(C   1,Br  3,C   0,Br 11)    -18.7304         0.000000   
    125. D(C   1,Br  3,C   0,H   6)     33.4459         0.000000   
    126. D(C   1,Br  3,C   0,H   4)   -118.1210         0.000000   
    127. D(C   1,Br  3,C   2,H  10)   -133.6263         0.000000   
    128. D(C   1,Br  3,C   0,H   5)    130.9909         0.000000   
    129. D(C   2,Br  3,C   0,C   1)    -32.2627         0.000000   
    130. D(C   1,Br 11,C   0,H   6)   -144.4198         0.000000   
    131. D(C   1,Br 11,C   0,H   5)    -67.4416         0.000000   
    132. D(C   1,Br 11,C   0,H   4)    109.4779         0.000000   
    133. D(C   1,Br 11,C   2,Br  3)    -18.5099         0.000000   
    134. D(C   1,Br 11,C   2,H  10)     63.8190         0.000000   
    135. D(C   1,Br 11,C   2,H   9)    141.1637         0.000000   
    136. D(C   1,Br 11,C   2,H   8)   -111.3133         0.000000   
    137. D(C   0,Br 11,C   2,Br  3)    -51.3008         0.000000   
    138. D(C   0,Br 11,C   2,H   9)    108.3728         0.000000   
    139. D(C   0,Br 11,C   2,H   8)   -144.1042         0.000000   
    140. D(C   0,Br 11,C   2,C   1)    -32.7909         0.000000   
    141. D(C   2,Br 11,C   1,Br  3)    119.8183         0.000000   
    142. D(C   2,Br 11,C   1,H   7)    119.6092         0.000000   
    143. D(C   2,Br 11,C   1,C   0)   -121.0782         0.000000   
    144. D(C   0,Br 11,C   1,Br  3)   -119.1035         0.000000   
    145. D(C   0,Br 11,C   1,H   7)   -119.3126         0.000000   
    146. D(C   0,Br 11,C   1,C   2)    121.0782         0.000000   
    147. D(C   0,Br 11,C   2,H  10)     31.0281         0.000000   
    148. D(C   2,Br 11,C   0,Br  3)     51.7694         0.000000   
    149. D(C   2,Br 11,C   0,H   6)   -111.4221         0.000000   
    150. D(C   2,Br 11,C   0,H   5)    -34.4439         0.000000   
    151. D(C   2,Br 11,C   0,H   4)    142.4756         0.000000   
    152. D(C   2,Br 11,C   0,C   1)     32.9977         0.000000   
    153. D(C   1,Br 11,C   0,Br  3)     18.7717         0.000000   
    -----------------------------------------------------------------

Number of atoms                         .... 12
Number of degrees of freedom            .... 153

         *************************************************************
         *                GEOMETRY OPTIMIZATION CYCLE   1            *
         *************************************************************
---------------------------------
CARTESIAN COORDINATES (ANGSTROEM)
---------------------------------
  C      1.172540   -1.320510   -0.312300
  C     -0.047210   -0.706260    0.291560
  C     -1.404380   -1.119270   -0.176210
  Br     0.080620    1.528310   -1.002370
  H      2.087100   -0.836010    0.051680
  H      1.136130   -1.249240   -1.409240
  H      1.203430   -2.384050   -0.034440
  H      0.052120   -0.008140    1.112490
  H     -2.192790   -0.537340    0.316100
  H     -1.547870   -2.182760    0.063810
  H     -1.486860   -0.993700   -1.265600
  Br    -0.065880   -2.145810    2.358980

----------------------------
CARTESIAN COORDINATES (A.U.)
----------------------------
  NO LB      ZA    FRAG     MASS         X           Y           Z
   0 C     6.0000    0    12.011    2.215779   -2.495402   -0.590161
   1 C     6.0000    0    12.011   -0.089214   -1.334638    0.550969
   2 C     6.0000    0    12.011   -2.653894   -2.115114   -0.332989
   3 Br   35.0000    0    79.900    0.152350    2.888087   -1.894205
   4 H     1.0000    0     1.008    3.944047   -1.579830    0.097661
   5 H     1.0000    0     1.008    2.146975   -2.360721   -2.663078
   6 H     1.0000    0     1.008    2.274153   -4.505202   -0.065082
   7 H     1.0000    0     1.008    0.098493   -0.015382    2.102301
   8 H     1.0000    0     1.008   -4.143773   -1.015425    0.597342
   9 H     1.0000    0     1.008   -2.925050   -4.124819    0.120583
  10 H     1.0000    0     1.008   -2.809758   -1.877821   -2.391637
  11 Br   35.0000    0    79.900   -0.124495   -4.054993    4.457826

--------------------------------
INTERNAL COORDINATES (ANGSTROEM)
--------------------------------
 C      0   0   0     0.000000000000     0.00000000     0.00000000
 C      1   0   0     1.493231403567     0.00000000     0.00000000
 C      2   1   0     1.493752470090   120.11842045     0.00000000
 Br     2   1   3     2.585323662271    96.47448621   257.65481175
 H      1   2   3     1.097106049569   111.41443308   173.54907108
 H      1   2   3     1.099855656257   110.46463034    51.91110198
 H      1   2   3     1.099671634307   108.57854950   293.17214067
 H      2   1   3     1.082203330340   119.81181914   176.08498231
 H      3   2   1     1.096632112014   111.46282952   183.51193203
 H      3   2   1     1.099640832545   108.51825716    63.78272337
 H      3   2   1     1.099700571701   110.29097314   305.08925465
 Br     8   2   1     2.477356322575    79.66913802   271.57186863

---------------------------
INTERNAL COORDINATES (A.U.)
---------------------------
 C      0   0   0     0.000000000000     0.00000000     0.00000000
 C      1   0   0     2.821798407313     0.00000000     0.00000000
 C      2   1   0     2.822783080339   120.11842045     0.00000000
 Br     2   1   3     4.885553689239    96.47448621   257.65481175
 H      1   2   3     2.073229973553   111.41443308   173.54907108
 H      1   2   3     2.078425977170   110.46463034    51.91110198
 H      1   2   3     2.078078226082   108.57854950   293.17214067
 H      2   1   3     2.045067915561   119.81181914   176.08498231
 H      3   2   1     2.072334361370   111.46282952   183.51193203
 H      3   2   1     2.078020019187   108.51825716    63.78272337
 H      3   2   1     2.078132909832   110.29097314   305.08925465
 Br     8   2   1     4.681524985804    79.66913802   271.57186863

---------------------
BASIS SET INFORMATION
---------------------
There are 3 groups of distinct atoms

 Group   1 Type C   : 7s4p1d contracted to 3s2p1d pattern {511/31/1}
 Group   2 Type Br  : 14s10p6d contracted to 5s4p3d pattern {63311/5311/411}
 Group   3 Type H   : 4s1p contracted to 2s1p pattern {31/1}

Atom   0C    basis set group =>   1
Atom   1C    basis set group =>   1
Atom   2C    basis set group =>   1
Atom   3Br   basis set group =>   2
Atom   4H    basis set group =>   3
Atom   5H    basis set group =>   3
Atom   6H    basis set group =>   3
Atom   7H    basis set group =>   3
Atom   8H    basis set group =>   3
Atom   9H    basis set group =>   3
Atom  10H    basis set group =>   3
Atom  11Br   basis set group =>   2
---------------------------------
AUXILIARY/J BASIS SET INFORMATION
---------------------------------
There are 3 groups of distinct atoms

 Group   1 Type C   : 12s5p4d2f1g contracted to 6s4p3d1f1g pattern {711111/2111/211/2/1}
 Group   2 Type Br  : 19s5p5d3f1g contracted to 8s4p3d2f1g pattern {121111111/2111/311/21/1}
 Group   3 Type H   : 5s2p1d contracted to 3s1p1d pattern {311/2/1}

Atom   0C    basis set group =>   1
Atom   1C    basis set group =>   1
Atom   2C    basis set group =>   1
Atom   3Br   basis set group =>   2
Atom   4H    basis set group =>   3
Atom   5H    basis set group =>   3
Atom   6H    basis set group =>   3
Atom   7H    basis set group =>   3
Atom   8H    basis set group =>   3
Atom   9H    basis set group =>   3
Atom  10H    basis set group =>   3
Atom  11Br   basis set group =>   2
[1631208313.275195] [comp0810:207861:0]            sys.c:618  UCX  ERROR shmget(size=2097152 flags=0xfb0) for mm_recv_desc failed: Operation not permitted, please check shared memory limits by 'ipcs -l'
[1631208313.275063] [comp0810:207863:0]            sys.c:618  UCX  ERROR shmget(size=2097152 flags=0xfb0) for mm_recv_desc failed: Operation not permitted, please check shared memory limits by 'ipcs -l'
[1631208313.275048] [comp0810:207866:0]            sys.c:618  UCX  ERROR shmget(size=2097152 flags=0xfb0) for mm_recv_desc failed: Operation not permitted, please check shared memory limits by 'ipcs -l'
[1631208313.275188] [comp0810:207869:0]            sys.c:618  UCX  ERROR shmget(size=2097152 flags=0xfb0) for mm_recv_desc failed: Operation not permitted, please check shared memory limits by 'ipcs -l'
[1631208313.304490] [comp0810:207861:0]            sys.c:618  UCX  ERROR shmget(size=2097152 flags=0xb80) for ucp_am_bufs failed: Operation not permitted, please check shared memory limits by 'ipcs -l'
[1631208313.304482] [comp0810:207863:0]            sys.c:618  UCX  ERROR shmget(size=2097152 flags=0xb80) for ucp_am_bufs failed: Operation not permitted, please check shared memory limits by 'ipcs -l'
[1631208313.304791] [comp0810:207866:0]            sys.c:618  UCX  ERROR shmget(size=2097152 flags=0xb80) for ucp_am_bufs failed: Operation not permitted, please check shared memory limits by 'ipcs -l'
[1631208313.319186] [comp0810:207869:0]            sys.c:618  UCX  ERROR shmget(size=2097152 flags=0xb80) for ucp_am_bufs failed: Operation not permitted, please check shared memory limits by 'ipcs -l'


           ************************************************************
           *        Program running with 4 parallel MPI-processes     *
           *              working on a common directory               *
           ************************************************************
------------------------------------------------------------------------------
                           ORCA GTO INTEGRAL CALCULATION
                           -- RI-GTO INTEGRALS CHOSEN --
------------------------------------------------------------------------------

                         BASIS SET STATISTICS AND STARTUP INFO

Gaussian basis set:
 # of primitive gaussian shells          ...  131
 # of primitive gaussian functions       ...  269
 # of contracted shells                  ...   63
 # of contracted basis functions         ...  141
 Highest angular momentum                ...    2
 Maximum contraction depth               ...    6
Auxiliary gaussian basis set:
 # of primitive gaussian shells          ...  194
 # of primitive gaussian functions       ...  500
 # of contracted shells                  ...  116
 # of contracted aux-basis functions     ...  340
 Highest angular momentum                ...    4
 Maximum contraction depth               ...   12
Ratio of auxiliary to basis functions    ...  2.41
Integral package used                  ... LIBINT
 One Electron integrals                  ... done
 Ordering auxiliary basis shells         ... done
 Integral threshhold             Thresh  ...  2.500e-11
 Primitive cut-off               TCut    ...  2.500e-12
 Pre-screening matrix                    ... done
 Shell pair data                         ... 
 Ordering of the shell pairs             ... done (   0.000 sec) 1857 of 2016 pairs
 Determination of significant pairs      ... done (   0.000 sec)
 Creation of shell pair data             ... done (   0.000 sec)
 Storage of shell pair data              ... done (   0.001 sec)
 Shell pair data done in (   0.002 sec)
 Computing two index integrals           ... done
 Cholesky decomposition of the V-matrix  ... done


Timings:
 Total evaluation time                   ...   0.324 sec (  0.005 min)
 One electron matrix time                ...   0.011 sec (  0.000 min) =  3.4%
 Schwartz matrix evaluation time         ...   0.113 sec (  0.002 min) = 34.9%
 Two index repulsion integral time       ...   0.002 sec (  0.000 min) =  0.8%
 Cholesky decomposition of V             ...   0.179 sec (  0.003 min) = 55.4%
 Three index repulsion integral time     ...   0.000 sec (  0.000 min) =  0.0%

[1631208315.581800] [comp0810:207930:0]            sys.c:618  UCX  ERROR shmget(size=2097152 flags=0xfb0) for mm_recv_desc failed: Operation not permitted, please check shared memory limits by 'ipcs -l'
[1631208315.583252] [comp0810:207925:0]            sys.c:618  UCX  ERROR shmget(size=2097152 flags=0xfb0) for mm_recv_desc failed: Operation not permitted, please check shared memory limits by 'ipcs -l'
[1631208315.583257] [comp0810:207934:0]            sys.c:618  UCX  ERROR shmget(size=2097152 flags=0xfb0) for mm_recv_desc failed: Operation not permitted, please check shared memory limits by 'ipcs -l'
[1631208315.584788] [comp0810:207927:0]            sys.c:618  UCX  ERROR shmget(size=2097152 flags=0xfb0) for mm_recv_desc failed: Operation not permitted, please check shared memory limits by 'ipcs -l'
[1631208315.604471] [comp0810:207930:0]            sys.c:618  UCX  ERROR shmget(size=2097152 flags=0xb80) for ucp_am_bufs failed: Operation not permitted, please check shared memory limits by 'ipcs -l'
[1631208315.604482] [comp0810:207934:0]            sys.c:618  UCX  ERROR shmget(size=2097152 flags=0xb80) for ucp_am_bufs failed: Operation not permitted, please check shared memory limits by 'ipcs -l'
[1631208315.605223] [comp0810:207925:0]            sys.c:618  UCX  ERROR shmget(size=2097152 flags=0xb80) for ucp_am_bufs failed: Operation not permitted, please check shared memory limits by 'ipcs -l'


           ************************************************************
           *        Program running with 4 parallel MPI-processes     *
           *              working on a common directory               *
           ************************************************************
-------------------------------------------------------------------------------
                                 ORCA SCF
-------------------------------------------------------------------------------

------------
SCF SETTINGS
------------
Hamiltonian:
 Density Functional     Method          .... DFT(GTOs)
 Exchange Functional    Exchange        .... PBE
   PBE kappa parameter   XKappa         ....  0.804000
   PBE mue parameter    XMuePBE         ....  0.219520
 Correlation Functional Correlation     .... PBE
   PBE beta parameter  CBetaPBE         ....  0.066725
 LDA part of GGA corr.  LDAOpt          .... PW91-LDA
 Gradients option       PostSCFGGA      .... off
 Hybrid DFT is turned on
   Fraction HF Exchange ScalHFX         ....  0.250000
   Scaling of DF-GGA-X  ScalDFX         ....  0.750000
   Scaling of DF-GGA-C  ScalDFC         ....  1.000000
   Scaling of DF-LDA-C  ScalLDAC        ....  1.000000
   Perturbative correction              ....  0.000000
   Density functional embedding theory  .... OFF
   NL short-range parameter             ....  6.900000
 RI-approximation to the Coulomb term is turned on
   Number of auxiliary basis functions  .... 340
   RIJ-COSX (HFX calculated with COS-X)).... on


General Settings:
 Integral files         IntName         .... manual_332
 Hartree-Fock type      HFTyp           .... RHF
 Total Charge           Charge          ....   -1
 Multiplicity           Mult            ....    1
 Number of Electrons    NEL             ....   96
 Basis Dimension        Dim             ....  141
 Nuclear Repulsion      ENuc            ....    517.0049783281 Eh

Convergence Acceleration:
 DIIS                   CNVDIIS         .... on
   Start iteration      DIISMaxIt       ....    12
   Startup error        DIISStart       ....  0.200000
   # of expansion vecs  DIISMaxEq       ....     5
   Bias factor          DIISBfac        ....   1.050
   Max. coefficient     DIISMaxC        ....  10.000
 Newton-Raphson         CNVNR           .... off
 SOSCF                  CNVSOSCF        .... on
   Start iteration      SOSCFMaxIt      ....   150
   Startup grad/error   SOSCFStart      ....  0.003300
 Level Shifting         CNVShift        .... on
   Level shift para.    LevelShift      ....    0.2500
   Turn off err/grad.   ShiftErr        ....    0.0010
 Zerner damping         CNVZerner       .... off
 Static damping         CNVDamp         .... on
   Fraction old density DampFac         ....    0.7000
   Max. Damping (<1)    DampMax         ....    0.9800
   Min. Damping (>=0)   DampMin         ....    0.0000
   Turn off err/grad.   DampErr         ....    0.1000
 Fernandez-Rico         CNVRico         .... off

SCF Procedure:
 Maximum # iterations   MaxIter         ....   250
 SCF integral mode      SCFMode         .... Direct
   Integral package                     .... LIBINT
 Reset frequency        DirectResetFreq ....    20
 Integral Threshold     Thresh          ....  2.500e-11 Eh
 Primitive CutOff       TCut            ....  2.500e-12 Eh

Convergence Tolerance:
 Convergence Check Mode ConvCheckMode   .... Total+1el-Energy
 Convergence forced     ConvForced      .... 0
 Energy Change          TolE            ....  1.000e-08 Eh
 1-El. energy change                    ....  1.000e-05 Eh
 Orbital Gradient       TolG            ....  1.000e-05
 Orbital Rotation angle TolX            ....  1.000e-05
 DIIS Error             TolErr          ....  5.000e-07


Diagonalization of the overlap matrix:
[1631208315.604886] [comp0810:207927:0]            sys.c:618  UCX  ERROR shmget(size=2097152 flags=0xb80) for ucp_am_bufs failed: Operation not permitted, please check shared memory limits by 'ipcs -l'
Smallest eigenvalue                        ... 2.454e-03
Time for diagonalization                   ...    0.161 sec
Threshold for overlap eigenvalues          ... 1.000e-08
Number of eigenvalues below threshold      ... 0
Time for construction of square roots      ...    0.001 sec
Total time needed                          ...    0.162 sec

-------------------
DFT GRID GENERATION
-------------------

General Integration Accuracy     IntAcc      ...  4.340
Radial Grid Type                 RadialGrid  ... Gauss-Chebyshev
Angular Grid (max. acc.)         AngularGrid ... Lebedev-110
Angular grid pruning method      GridPruning ... 3 (G Style)
Weight generation scheme         WeightScheme... Becke
Basis function cutoff            BFCut       ...    1.0000e-11
Integration weight cutoff        WCut        ...    1.0000e-14
Grids for H and He will be reduced by one unit

# of grid points (after initial pruning)     ...  16306 (   0.0 sec)
# of grid points (after weights+screening)   ...  15492 (   0.0 sec)
nearest neighbour list constructed           ...    0.0 sec
Grid point re-assignment to atoms done       ...    0.0 sec
Grid point division into batches done        ...    0.0 sec
Reduced shell lists constructed in    0.0 sec

Total number of grid points                  ...    15492
Total number of batches                      ...      248
Average number of points per batch           ...       62
Average number of grid points per atom       ...     1291
Average number of shells per batch           ...    45.37 (72.01%)
Average number of basis functions per batch  ...    98.63 (69.95%)
Average number of large shells per batch     ...    38.06 (83.90%)
Average number of large basis fcns per batch ...    79.94 (81.04%)
Maximum spatial batch extension              ...  18.51, 18.13, 15.20 au
Average spatial batch extension              ...   0.82,  0.80,  0.78 au

Time for grid setup =    0.048 sec

------------------------------
INITIAL GUESS: MODEL POTENTIAL
------------------------------
Loading Hartree-Fock densities                     ... done
Calculating cut-offs                               ... done
Setting up the integral package                    ... done
Initializing the effective Hamiltonian             ... done
Starting the Coulomb interaction                   ... done (   0.0 sec)
Reading the grid                                   ... done
Mapping shells                                     ... done
Starting the XC term evaluation                    ... done (   0.0 sec)
  promolecular density results
     # of electrons  =     94.996498973
     EX              =   -195.890231350
     EC              =     -4.223821347
     EX+EC           =   -200.114052698
Transforming the Hamiltonian                       ... done (   0.0 sec)
Diagonalizing the Hamiltonian                      ... done (   0.0 sec)
Back transforming the eigenvectors                 ... done (   0.0 sec)
Now organizing SCF variables                       ... done
                      ------------------
                      INITIAL GUESS DONE (   0.2 sec)
                      ------------------
--------------------
COSX GRID GENERATION
--------------------

General Integration Accuracy     IntAcc      ...  3.340
Radial Grid Type                 RadialGrid  ... Gauss-Chebyshev
Angular Grid (max. acc.)         AngularGrid ... Lebedev-50
Angular grid pruning method      GridPruning ... 3 (G Style)
Weight generation scheme         WeightScheme... Becke
Basis function cutoff            BFCut       ...    1.0000e-11
Integration weight cutoff        WCut        ...    1.0000e-14
Grids for H and He will be reduced by one unit

# of grid points (after initial pruning)     ...   6064 (   0.0 sec)
# of grid points (after weights+screening)   ...   5735 (   0.0 sec)
nearest neighbour list constructed           ...    0.0 sec
Grid point re-assignment to atoms done       ...    0.0 sec
Grid point division into batches done        ...    0.0 sec
Reduced shell lists constructed in    0.0 sec

Total number of grid points                  ...     5735
Total number of batches                      ...       96
Average number of points per batch           ...       59
Average number of grid points per atom       ...      478
Average number of shells per batch           ...    46.16 (73.27%)
Average number of basis functions per batch  ...   100.56 (71.32%)
Average number of large shells per batch     ...    40.20 (87.09%)
Average number of large basis fcns per batch ...    85.64 (85.16%)
Maximum spatial batch extension              ...  17.42, 14.37, 14.82 au
Average spatial batch extension              ...   1.01,  0.91,  0.91 au

Overlap Fitting                  UseSFitting ... on
Constructing numerical overlap ... done (      0.0 sec)
Inverting numerical overlap    ... done (      0.0 sec)
Obtaining analytic overlap     ... done (      0.0 sec)
Final contraction and storage  ... done (      0.0 sec)


General Integration Accuracy     IntAcc      ...  3.670
Radial Grid Type                 RadialGrid  ... Gauss-Chebyshev
Angular Grid (max. acc.)         AngularGrid ... Lebedev-50
Angular grid pruning method      GridPruning ... 3 (G Style)
Weight generation scheme         WeightScheme... Becke
Basis function cutoff            BFCut       ...    1.0000e-11
Integration weight cutoff        WCut        ...    1.0000e-14
Grids for H and He will be reduced by one unit

# of grid points (after initial pruning)     ...   7582 (   0.0 sec)
# of grid points (after weights+screening)   ...   7156 (   0.0 sec)
nearest neighbour list constructed           ...    0.0 sec
Grid point re-assignment to atoms done       ...    0.0 sec
Grid point division into batches done        ...    0.0 sec
Reduced shell lists constructed in    0.0 sec

Total number of grid points                  ...     7156
Total number of batches                      ...      117
Average number of points per batch           ...       61
Average number of grid points per atom       ...      596
Average number of shells per batch           ...    46.71 (74.14%)
Average number of basis functions per batch  ...   101.94 (72.29%)
Average number of large shells per batch     ...    40.45 (86.60%)
Average number of large basis fcns per batch ...    85.81 (84.18%)
Maximum spatial batch extension              ...  18.95, 14.76, 15.29 au
Average spatial batch extension              ...   1.01,  0.95,  0.97 au

Overlap Fitting                  UseSFitting ... on
Constructing numerical overlap ... done (      0.0 sec)
Inverting numerical overlap    ... done (      0.0 sec)
Obtaining analytic overlap     ... done (      0.0 sec)
Final contraction and storage  ... done (      0.0 sec)


General Integration Accuracy     IntAcc      ...  4.010
Radial Grid Type                 RadialGrid  ... Gauss-Chebyshev
Angular Grid (max. acc.)         AngularGrid ... Lebedev-110
Angular grid pruning method      GridPruning ... 3 (G Style)
Weight generation scheme         WeightScheme... Becke
Basis function cutoff            BFCut       ...    1.0000e-11
Integration weight cutoff        WCut        ...    1.0000e-14
Grids for H and He will be reduced by one unit

# of grid points (after initial pruning)     ...  14244 (   0.0 sec)
# of grid points (after weights+screening)   ...  13545 (   0.0 sec)
nearest neighbour list constructed           ...    0.0 sec
Grid point re-assignment to atoms done       ...    0.0 sec
Grid point division into batches done        ...    0.0 sec
Reduced shell lists constructed in    0.0 sec

Total number of grid points                  ...    13545
Total number of batches                      ...      217
Average number of points per batch           ...       62
Average number of grid points per atom       ...     1129
Average number of shells per batch           ...    45.71 (72.56%)
Average number of basis functions per batch  ...    99.61 (70.64%)
Average number of large shells per batch     ...    38.73 (84.73%)
Average number of large basis fcns per batch ...    81.59 (81.91%)
Maximum spatial batch extension              ...  17.60, 17.43, 15.04 au
Average spatial batch extension              ...   0.84,  0.83,  0.83 au

Overlap Fitting                  UseSFitting ... on
Constructing numerical overlap ... done (      0.0 sec)
Inverting numerical overlap    ... done (      0.0 sec)
Obtaining analytic overlap     ... done (      0.0 sec)
Final contraction and storage  ... done (      0.0 sec)

Time for X-Grid setup             =    0.232 sec

--------------------
CPCM SOLVATION MODEL
--------------------
CPCM parameters:
  Epsilon                                         ...      20.7000
  Refrac                                          ...       1.3590
  Rsolv                                           ...       1.3000
  Surface type                                    ...    GEPOL SES
  Epsilon function type                           ...         CPCM
Radii:
 Radius for C  used is    3.7795 Bohr (=   2.0000 Ang.)
 Radius for Br used is    4.0818 Bohr (=   2.1600 Ang.)
 Radius for H  used is    2.4566 Bohr (=   1.3000 Ang.)
Calculating surface                               ...        done! (  0.0s)
GEPOL surface points                              ...          464
GEPOL Volume                                      ...     990.8559
GEPOL Surface-area                                ...     558.9622
Calculating surface distance matrix               ...        done! (  0.0s)
Performing Cholesky decomposition & store         ...        done! (  0.0s)
Overall time for CPCM initialization              ...                 0.1s
--------------
SCF ITERATIONS
--------------
ITER       Energy         Delta-E        Max-DP      RMS-DP      [F,P]     Damp
               ***  Starting incremental Fock matrix formation  ***
  0  -5265.4184601600   0.000000000000 0.07825529  0.00208257  0.1476954 0.7000
  1  -5265.4704176854  -0.051957525356 0.06264916  0.00159063  0.0792881 0.7000
                               ***Turning on DIIS***
  2  -5265.4949911783  -0.024573492951 0.13439051  0.00313267  0.0324882 0.0000
  3  -5265.5317927865  -0.036801608214 0.03391998  0.00088938  0.0418932 0.0000
  4  -5265.5396334248  -0.007840638306 0.01159946  0.00028584  0.0060560 0.0000
                      *** Initiating the SOSCF procedure ***
                           *** Shutting down DIIS ***
                      *** Re-Reading the Fockian *** 
                      *** Removing any level shift *** 
ITER      Energy       Delta-E        Grad      Rot      Max-DP    RMS-DP
  5  -5265.53996472  -0.0003312974  0.000698  0.000698  0.002893  0.000089
               *** Restarting incremental Fock matrix formation ***
  6  -5265.53998747  -0.0000227514  0.000520  0.002235  0.001371  0.000065
  7  -5265.53999220  -0.0000047230  0.000325  0.000275  0.000836  0.000025
  8  -5265.53999434  -0.0000021426  0.000066  0.000137  0.000245  0.000008
  9  -5265.53999431   0.0000000265  0.000064  0.000121  0.000105  0.000003
 10  -5265.53999445  -0.0000001358  0.000007  0.000031  0.000031  0.000001
 11  -5265.53999448  -0.0000000308  0.000003  0.000007  0.000019  0.000000
                  ***Gradient check signals convergence***
              ***Rediagonalizing the Fockian in SOSCF/NRSCF***

               *****************************************************
               *                     SUCCESS                       *
               *           SCF CONVERGED AFTER  12 CYCLES          *
               *****************************************************

Setting up the final grid:

General Integration Accuracy     IntAcc      ...  4.670
Radial Grid Type                 RadialGrid  ... Gauss-Chebyshev
Angular Grid (max. acc.)         AngularGrid ... Lebedev-302
Angular grid pruning method      GridPruning ... 3 (G Style)
Weight generation scheme         WeightScheme... Becke
Basis function cutoff            BFCut       ...    1.0000e-11
Integration weight cutoff        WCut        ...    1.0000e-14
Grids for H and He will be reduced by one unit

# of grid points (after initial pruning)     ...  61626 (   0.0 sec)
# of grid points (after weights+screening)   ...  57913 (   0.0 sec)
nearest neighbour list constructed           ...    0.0 sec
Grid point re-assignment to atoms done       ...    0.0 sec
Grid point division into batches done        ...    0.2 sec
Reduced shell lists constructed in    0.3 sec

Total number of grid points                  ...    57913
Total number of batches                      ...      911
Average number of points per batch           ...       63
Average number of grid points per atom       ...     4826
Average number of shells per batch           ...    43.23 (68.62%)
Average number of basis functions per batch  ...    93.00 (65.95%)
Average number of large shells per batch     ...    36.22 (83.78%)
Average number of large basis fcns per batch ...    75.86 (81.57%)
Maximum spatial batch extension              ...  17.65, 14.16, 15.22 au
Average spatial batch extension              ...   0.54,  0.52,  0.52 au

Final grid set up in    0.3 sec
Final integration                            ... done (   0.1 sec)
Change in XC energy                          ...    -0.000011012
Integrated number of electrons               ...    96.000035671
Previous integrated no of electrons          ...    96.000726339
Old exchange energy                            =    -49.352274022 Eh
New exchange energy                            =    -49.351735431 Eh
Exchange energy change after final integration =      0.000538591 Eh
Total energy after final integration           =  -5265.539466855 Eh
Final COS-X integration done in                =     0.866 sec

----------------
TOTAL SCF ENERGY
----------------

Total Energy       :        -5265.53946686 Eh         -143282.61324 eV

Components:
Nuclear Repulsion  :          517.00497833 Eh           14068.42068 eV
Electronic Energy  :        -5782.54444518 Eh         -157351.03393 eV
One Electron Energy:        -8374.52530853 Eh         -227882.41896 eV
Two Electron Energy:         2591.98086335 Eh           70531.38504 eV
CPCM Dielectric    :           -0.08563498 Eh              -2.33025 eV

Virial components:
Potential Energy   :       -10524.55395846 Eh         -286387.67288 eV
Kinetic Energy     :         5259.01449160 Eh          143105.05964 eV
Virial Ratio       :            2.00124072


DFT components:
N(Alpha)           :       48.000017835717 electrons
N(Beta)            :       48.000017835717 electrons
N(Total)           :       96.000035671435 electrons
E(X)               :     -147.426758388320 Eh       
E(C)               :       -4.273857179013 Eh       
E(XC)              :     -151.700615567333 Eh       
DFET-embed. en.    :        0.000000000000 Eh       
CPCM Solvation Model Properties:
Surface-charge          :            0.97551394
Charge-correction       :           -0.00334553 Eh              -0.09104 eV
Free-energy (cav+disp)  :            0.00379234 Eh               0.10319 eV
Corrected G(solv)       :        -5265.53902005 Eh         -143282.60108 eV

---------------
SCF CONVERGENCE
---------------

  Last Energy change         ...    4.4988e-08  Tolerance :   1.0000e-08
  Last MAX-Density change    ...    3.5527e-15  Tolerance :   1.0000e-07
  Last RMS-Density change    ...    9.1201e-17  Tolerance :   5.0000e-09
  Last Orbital Gradient      ...    1.0668e-06  Tolerance :   1.0000e-05
  Last Orbital Rotation      ...    1.8810e-06  Tolerance :   1.0000e-05

             **** THE GBW FILE WAS UPDATED (manual_332.gbw) ****
             **** DENSITY FILE WAS UPDATED (manual_332.scfp) ****
             **** ENERGY FILE WAS UPDATED (manual_332.en.tmp) ****
             **** THE GBW FILE WAS UPDATED (manual_332.gbw) ****
             **** DENSITY FILE WAS UPDATED (manual_332.scfp) ****
----------------
ORBITAL ENERGIES
----------------

  NO   OCC          E(Eh)            E(eV) 
   0   2.0000    -483.101699    -13145.8656 
   1   2.0000    -483.099813    -13145.8142 
   2   2.0000     -62.537228     -1701.7245 
   3   2.0000     -62.535201     -1701.6693 
   4   2.0000     -56.325516     -1532.6952 
   5   2.0000     -56.324775     -1532.6750 
   6   2.0000     -56.324649     -1532.6716 
   7   2.0000     -56.323368     -1532.6368 
   8   2.0000     -56.322842     -1532.6224 
   9   2.0000     -56.322706     -1532.6188 
  10   2.0000     -10.302787      -280.3531 
  11   2.0000     -10.222541      -278.1695 
  12   2.0000     -10.222524      -278.1690 
  13   2.0000      -8.681236      -236.2285 
  14   2.0000      -8.679017      -236.1681 
  15   2.0000      -6.490258      -176.6089 
  16   2.0000      -6.487953      -176.5462 
  17   2.0000      -6.486232      -176.4993 
  18   2.0000      -6.485973      -176.4923 
  19   2.0000      -6.484011      -176.4389 
  20   2.0000      -6.483832      -176.4340 
  21   2.0000      -2.576647       -70.1141 
  22   2.0000      -2.575671       -70.0876 
  23   2.0000      -2.575413       -70.0806 
  24   2.0000      -2.574326       -70.0510 
  25   2.0000      -2.573323       -70.0237 
  26   2.0000      -2.573156       -70.0191 
  27   2.0000      -2.572204       -69.9932 
  28   2.0000      -2.572189       -69.9928 
  29   2.0000      -2.570034       -69.9342 
  30   2.0000      -2.570027       -69.9340 
  31   2.0000      -0.812676       -22.1140 
  32   2.0000      -0.702945       -19.1281 
  33   2.0000      -0.692766       -18.8511 
  34   2.0000      -0.683492       -18.5988 
  35   2.0000      -0.578558       -15.7434 
  36   2.0000      -0.470711       -12.8087 
  37   2.0000      -0.443116       -12.0578 
  38   2.0000      -0.421178       -11.4608 
  39   2.0000      -0.395715       -10.7680 
  40   2.0000      -0.368472       -10.0266 
  41   2.0000      -0.362349        -9.8600 
  42   2.0000      -0.272667        -7.4197 
  43   2.0000      -0.243447        -6.6245 
  44   2.0000      -0.242084        -6.5874 
  45   2.0000      -0.237976        -6.4756 
  46   2.0000      -0.237767        -6.4700 
  47   2.0000      -0.223214        -6.0740 
  48   0.0000      -0.039907        -1.0859 
  49   0.0000       0.092116         2.5066 
  50   0.0000       0.120203         3.2709 
  51   0.0000       0.133816         3.6413 
  52   0.0000       0.162715         4.4277 
  53   0.0000       0.172880         4.7043 
  54   0.0000       0.174106         4.7377 
  55   0.0000       0.178583         4.8595 
  56   0.0000       0.246809         6.7160 
  57   0.0000       0.269700         7.3389 
  58   0.0000       0.360033         9.7970 
  59   0.0000       0.372061        10.1243 
  60   0.0000       0.413026        11.2390 
  61   0.0000       0.430015        11.7013 
  62   0.0000       0.432576        11.7710 
  63   0.0000       0.499873        13.6022 
  64   0.0000       0.508269        13.8307 
  65   0.0000       0.535020        14.5586 
  66   0.0000       0.556502        15.1432 
  67   0.0000       0.580741        15.8028 
  68   0.0000       0.581334        15.8189 
  69   0.0000       0.590233        16.0610 
  70   0.0000       0.594018        16.1640 
  71   0.0000       0.603184        16.4135 
  72   0.0000       0.603798        16.4302 
  73   0.0000       0.628789        17.1102 
  74   0.0000       0.633946        17.2505 
  75   0.0000       0.638111        17.3639 
  76   0.0000       0.654209        17.8019 
  77   0.0000       0.663853        18.0644 
  78   0.0000       0.677669        18.4403 
  79   0.0000       0.686659        18.6849 
  80   0.0000       0.710326        19.3290 
  81   0.0000       0.723272        19.6812 
  82   0.0000       0.725425        19.7398 
  83   0.0000       0.726478        19.7685 
  84   0.0000       0.742405        20.2019 
  85   0.0000       0.746463        20.3123 
  86   0.0000       0.774114        21.0647 
  87   0.0000       0.816821        22.2268 
  88   0.0000       0.818182        22.2639 
  89   0.0000       0.832762        22.6606 
  90   0.0000       0.838044        22.8043 
  91   0.0000       1.016223        27.6528 
  92   0.0000       1.057385        28.7729 
  93   0.0000       1.093957        29.7681 
  94   0.0000       1.131141        30.7799 
  95   0.0000       1.170750        31.8577 
  96   0.0000       1.298568        35.3358 
  97   0.0000       1.321563        35.9616 
  98   0.0000       1.527750        41.5722 
  99   0.0000       1.552788        42.2535 
 100   0.0000       1.570132        42.7255 
 101   0.0000       1.603365        43.6298 
 102   0.0000       1.643797        44.7300 
 103   0.0000       1.727538        47.0087 
 104   0.0000       1.733425        47.1689 
 105   0.0000       1.785233        48.5787 
 106   0.0000       1.825770        49.6817 
 107   0.0000       1.830984        49.8236 
 108   0.0000       1.835154        49.9371 
 109   0.0000       1.871249        50.9193 
 110   0.0000       1.932334        52.5815 
 111   0.0000       1.950295        53.0702 
 112   0.0000       2.010230        54.7011 
 113   0.0000       2.061529        56.0971 
 114   0.0000       2.127399        57.8895 
 115   0.0000       2.187988        59.5382 
 116   0.0000       2.222858        60.4871 
 117   0.0000       2.242690        61.0267 
 118   0.0000       2.396563        65.2138 
 119   0.0000       2.398639        65.2703 
 120   0.0000       2.553255        69.4776 
 121   0.0000       2.577957        70.1498 
 122   0.0000       2.610803        71.0436 
 123   0.0000       2.644278        71.9545 
 124   0.0000       2.764376        75.2225 
 125   0.0000       2.906374        79.0865 
 126   0.0000       2.929946        79.7279 
 127   0.0000       2.938803        79.9689 
 128   0.0000       2.944435        80.1221 
 129   0.0000       2.984999        81.2260 
 130   0.0000       3.147014        85.6346 
 131   0.0000       3.536551        96.2344 
 132   0.0000       3.537861        96.2701 
 133   0.0000       3.547420        96.5302 
 134   0.0000       3.552257        96.6618 
 135   0.0000       3.558454        96.8305 
 136   0.0000       3.600361        97.9708 
 137   0.0000       3.604102        98.0726 
 138   0.0000       3.611737        98.2804 
 139   0.0000       3.690853       100.4332 
 140   0.0000       3.783968       102.9670 

                    ********************************
                    * MULLIKEN POPULATION ANALYSIS *
                    ********************************

-----------------------
MULLIKEN ATOMIC CHARGES
-----------------------
   0 C :    0.015170
   1 C :   -0.177519
   2 C :    0.016321
   3 Br:   -0.679464
   4 H :    0.053122
   5 H :    0.062580
   6 H :    0.063922
   7 H :    0.122691
   8 H :    0.054370
   9 H :    0.063834
  10 H :    0.061963
  11 Br:   -0.656989
Sum of atomic charges:   -1.0000000

--------------------------------
MULLIKEN REDUCED ORBITAL CHARGES
--------------------------------
  0 C s       :     2.994153  s :     2.994153
      pz      :     1.008527  p :     2.963882
      px      :     0.940430
      py      :     1.014925
      dz2     :     0.007762  d :     0.026795
      dxz     :     0.004251
      dyz     :     0.002756
      dx2y2   :     0.007023
      dxy     :     0.005004
  1 C s       :     3.343932  s :     3.343932
      pz      :     0.889814  p :     2.793925
      px      :     1.037607
      py      :     0.866503
      dz2     :     0.006296  d :     0.039662
      dxz     :     0.007989
      dyz     :     0.007697
      dx2y2   :     0.009424
      dxy     :     0.008255
  2 C s       :     2.992274  s :     2.992274
      pz      :     1.018481  p :     2.964610
      px      :     0.921227
      py      :     1.024902
      dz2     :     0.007546  d :     0.026795
      dxz     :     0.004546
      dyz     :     0.002540
      dx2y2   :     0.007250
      dxy     :     0.004913
  3 Brs       :     7.988492  s :     7.988492
      pz      :     5.915668  p :    17.684664
      px      :     5.983639
      py      :     5.785357
      dz2     :     2.000856  d :    10.006308
      dxz     :     2.000150
      dyz     :     2.002954
      dx2y2   :     2.001441
      dxy     :     2.000906
  4 H s       :     0.923106  s :     0.923106
      pz      :     0.005683  p :     0.023772
      px      :     0.011321
      py      :     0.006768
  5 H s       :     0.912949  s :     0.912949
      pz      :     0.015024  p :     0.024472
      px      :     0.004208
      py      :     0.005240
  6 H s       :     0.910679  s :     0.910679
      pz      :     0.006310  p :     0.025400
      px      :     0.004504
      py      :     0.014586
  7 H s       :     0.852572  s :     0.852572
      pz      :     0.011958  p :     0.024737
      px      :     0.002980
      py      :     0.009799
  8 H s       :     0.921829  s :     0.921829
      pz      :     0.006739  p :     0.023801
      px      :     0.009304
      py      :     0.007758
  9 H s       :     0.910895  s :     0.910895
      pz      :     0.006116  p :     0.025270
      px      :     0.004472
      py      :     0.014682
 10 H s       :     0.913509  s :     0.913509
      pz      :     0.014932  p :     0.024529
      px      :     0.004121
      py      :     0.005475
 11 Brs       :     7.987916  s :     7.987916
      pz      :     5.800884  p :    17.659565
      px      :     5.981892
      py      :     5.876789
      dz2     :     2.001718  d :    10.009508
      dxz     :     2.001800
      dyz     :     2.004027
      dx2y2   :     2.001692
      dxy     :     2.000271


                     *******************************
                     * LOEWDIN POPULATION ANALYSIS *
                     *******************************

----------------------
LOEWDIN ATOMIC CHARGES
----------------------
   0 C :   -0.086841
   1 C :    0.077461
   2 C :   -0.086729
   3 Br:   -0.593941
   4 H :    0.038559
   5 H :    0.038056
   6 H :    0.036118
   7 H :    0.017471
   8 H :    0.038866
   9 H :    0.036525
  10 H :    0.037830
  11 Br:   -0.553374

-------------------------------
LOEWDIN REDUCED ORBITAL CHARGES
-------------------------------
  0 C s       :     2.844272  s :     2.844272
      pz      :     1.069735  p :     3.170672
      px      :     1.026634
      py      :     1.074303
      dz2     :     0.020840  d :     0.071897
      dxz     :     0.011496
      dyz     :     0.006705
      dx2y2   :     0.018932
      dxy     :     0.013923
  1 C s       :     2.969712  s :     2.969712
      pz      :     0.913376  p :     2.867809
      px      :     1.074520
      py      :     0.879913
      dz2     :     0.012426  d :     0.085018
      dxz     :     0.017757
      dyz     :     0.016720
      dx2y2   :     0.020565
      dxy     :     0.017550
  2 C s       :     2.844185  s :     2.844185
      pz      :     1.074886  p :     3.170642
      px      :     1.016784
      py      :     1.078972
      dz2     :     0.020199  d :     0.071902
      dxz     :     0.012131
      dyz     :     0.006144
      dx2y2   :     0.020171
      dxy     :     0.013258
  3 Brs       :     7.960881  s :     7.960881
      pz      :     5.898010  p :    17.626244
      px      :     5.972727
      py      :     5.755506
      dz2     :     2.000857  d :    10.006816
      dxz     :     2.000168
      dyz     :     2.003330
      dx2y2   :     2.001619
      dxy     :     2.000843
  4 H s       :     0.894856  s :     0.894856
      pz      :     0.015636  p :     0.066585
      px      :     0.032480
      py      :     0.018469
  5 H s       :     0.894239  s :     0.894239
      pz      :     0.042474  p :     0.067705
      px      :     0.011831
      py      :     0.013399
  6 H s       :     0.893509  s :     0.893509
      pz      :     0.016282  p :     0.070373
      px      :     0.012463
      py      :     0.041628
  7 H s       :     0.898742  s :     0.898742
      pz      :     0.039691  p :     0.083787
      px      :     0.012662
      py      :     0.031433
  8 H s       :     0.894448  s :     0.894448
      pz      :     0.018451  p :     0.066687
      px      :     0.027117
      py      :     0.021119
  9 H s       :     0.893428  s :     0.893428
      pz      :     0.015584  p :     0.070047
      px      :     0.012786
      py      :     0.041677
 10 H s       :     0.894276  s :     0.894276
      pz      :     0.042173  p :     0.067895
      px      :     0.011906
      py      :     0.013816
 11 Brs       :     7.951837  s :     7.951837
      pz      :     5.772797  p :    17.591434
      px      :     5.966418
      py      :     5.852219
      dz2     :     2.001773  d :    10.010103
      dxz     :     2.001663
      dyz     :     2.004552
      dx2y2   :     2.001814
      dxy     :     2.000301


                      *****************************
                      * MAYER POPULATION ANALYSIS *
                      *****************************

  NA   - Mulliken gross atomic population
  ZA   - Total nuclear charge
  QA   - Mulliken gross atomic charge
  VA   - Mayer's total valence
  BVA  - Mayer's bonded valence
  FA   - Mayer's free valence

  ATOM       NA         ZA         QA         VA         BVA        FA
  0 C      5.9848     6.0000     0.0152     3.8416     3.8416    -0.0000
  1 C      6.1775     6.0000    -0.1775     3.9630     3.9630    -0.0000
  2 C      5.9837     6.0000     0.0163     3.8423     3.8423    -0.0000
  3 Br    35.6795    35.0000    -0.6795     0.5603     0.5603     0.0000
  4 H      0.9469     1.0000     0.0531     0.9983     0.9983     0.0000
  5 H      0.9374     1.0000     0.0626     1.0062     1.0062    -0.0000
  6 H      0.9361     1.0000     0.0639     1.0170     1.0170    -0.0000
  7 H      0.8773     1.0000     0.1227     0.9966     0.9966    -0.0000
  8 H      0.9456     1.0000     0.0544     0.9975     0.9975    -0.0000
  9 H      0.9362     1.0000     0.0638     1.0152     1.0152    -0.0000
 10 H      0.9380     1.0000     0.0620     1.0076     1.0076    -0.0000
 11 Br    35.6570    35.0000    -0.6570     0.6035     0.6035    -0.0000

  Mayer bond orders larger than 0.100000
B(  0-C ,  1-C ) :   1.0552 B(  0-C ,  4-H ) :   0.9637 B(  0-C ,  5-H ) :   0.9503 
B(  0-C ,  6-H ) :   0.9388 B(  1-C ,  2-C ) :   1.0574 B(  1-C ,  3-Br) :   0.3942 
B(  1-C ,  7-H ) :   0.9401 B(  1-C , 11-Br) :   0.4278 B(  2-C ,  8-H ) :   0.9635 
B(  2-C ,  9-H ) :   0.9405 B(  2-C , 10-H ) :   0.9469 


------------------
HIRSHFELD ANALYSIS
------------------

Total integrated alpha density =     48.000363170
Total integrated beta density  =     48.000363170

  ATOM     CHARGE      SPIN    
   0 C   -0.082950    0.000000
   1 C    0.110573    0.000000
   2 C   -0.083306    0.000000
   3 Br  -0.598922    0.000000
   4 H    0.033743    0.000000
   5 H    0.031184    0.000000
   6 H    0.028093    0.000000
   7 H    0.029168    0.000000
   8 H    0.034863    0.000000
   9 H    0.028814    0.000000
  10 H    0.031014    0.000000
  11 Br  -0.563001    0.000000

  TOTAL  -1.000726    0.000000

-------
TIMINGS
-------

Total SCF time: 0 days 0 hours 0 min 12 sec 

Total time                  ....      12.235 sec
Sum of individual times     ....      11.905 sec  ( 97.3%)

Fock matrix formation       ....      11.073 sec  ( 90.5%)
  Split-RI-J                ....       1.630 sec  ( 14.7% of F)
  Chain of spheres X        ....       5.913 sec  ( 53.4% of F)
  COS-X 1 center corr.      ....       0.000 sec  (  0.0% of F)
  XC integration            ....       0.629 sec  (  5.7% of F)
    Basis function eval.    ....       0.247 sec  ( 39.3% of XC)
    Density eval.           ....       0.115 sec  ( 18.3% of XC)
    XC-Functional eval.     ....       0.057 sec  (  9.1% of XC)
    XC-Potential eval.      ....       0.169 sec  ( 26.8% of XC)
Diagonalization             ....       0.016 sec  (  0.1%)
Density matrix formation    ....       0.004 sec  (  0.0%)
Population analysis         ....       0.041 sec  (  0.3%)
Initial guess               ....       0.131 sec  (  1.1%)
Orbital Transformation      ....       0.000 sec  (  0.0%)
Orbital Orthonormalization  ....       0.000 sec  (  0.0%)
DIIS solution               ....       0.004 sec  (  0.0%)
SOSCF solution              ....       0.010 sec  (  0.1%)
Grid generation             ....       0.625 sec  (  5.1%)


-------------------------------------------------------------------------------
                          DFT DISPERSION CORRECTION                            
                                                                               
                              DFTD3 V3.1  Rev 1                                
                          USING Becke-Johnson damping                          
-------------------------------------------------------------------------------
The PBE0 functional is recognized
Active option DFTDOPT                   ...         4   

molecular C6(AA) [au] = 2602.926819 


            DFT-D V3
 parameters
 s6 scaling factor         :     1.0000 
 a1 scaling factor         :     0.4145 
 s8 scaling factor         :     1.2177 
 a2 scaling factor         :     4.8593 
 ad hoc parameters k1-k3   :    16.0000     1.3333    -4.0000 

 Edisp/kcal,au: -6.516066228670  -0.010384011402 
 E6   /kcal   :  -3.850063717 
 E8   /kcal   :  -2.666002511 
 % E8         :  40.914294264 

-------------------------   ----------------
Dispersion correction           -0.010384011
-------------------------   ----------------


-------------------------   --------------------
FINAL SINGLE POINT ENERGY     -5265.549850866480
-------------------------   --------------------

[1631208330.444631] [comp0810:207985:0]            sys.c:618  UCX  ERROR shmget(size=2097152 flags=0xfb0) for mm_recv_desc failed: Operation not permitted, please check shared memory limits by 'ipcs -l'
[1631208330.449721] [comp0810:207987:0]            sys.c:618  UCX  ERROR shmget(size=2097152 flags=0xfb0) for mm_recv_desc failed: Operation not permitted, please check shared memory limits by 'ipcs -l'
[1631208330.450324] [comp0810:207986:0]            sys.c:618  UCX  ERROR shmget(size=2097152 flags=0xfb0) for mm_recv_desc failed: Operation not permitted, please check shared memory limits by 'ipcs -l'
[1631208330.450877] [comp0810:207988:0]            sys.c:618  UCX  ERROR shmget(size=2097152 flags=0xfb0) for mm_recv_desc failed: Operation not permitted, please check shared memory limits by 'ipcs -l'
[1631208330.460675] [comp0810:207987:0]            sys.c:618  UCX  ERROR shmget(size=2097152 flags=0xb80) for ucp_am_bufs failed: Operation not permitted, please check shared memory limits by 'ipcs -l'
[1631208330.460664] [comp0810:207985:0]            sys.c:618  UCX  ERROR shmget(size=2097152 flags=0xb80) for ucp_am_bufs failed: Operation not permitted, please check shared memory limits by 'ipcs -l'


           ************************************************************
           *        Program running with 4 parallel MPI-processes     *
           *              working on a common directory               *
           ************************************************************
------------------------------------------------------------------------------
                         ORCA SCF GRADIENT CALCULATION
------------------------------------------------------------------------------

[1631208330.463749] [comp0810:207986:0]            sys.c:618  UCX  ERROR shmget(size=2097152 flags=0xb80) for ucp_am_bufs failed: Operation not permitted, please check shared memory limits by 'ipcs -l'
[1631208330.460985] [comp0810:207988:0]            sys.c:618  UCX  ERROR shmget(size=2097152 flags=0xb80) for ucp_am_bufs failed: Operation not permitted, please check shared memory limits by 'ipcs -l'
Gradient of the Kohn-Sham DFT energy:
Kohn-Sham wavefunction type      ... RKS
Hartree-Fock exchange scaling    ...    0.250
Number of operators              ...    1
Number of atoms                  ...   12
Basis set dimensions             ...  141
Integral neglect threshold       ... 2.5e-11
Integral primitive cutoff        ... 2.5e-12

Nuclear repulsion gradient       ... done
One Electron Gradient            ... done
Pre-screening matrix             ... done
RI-J gradient                    ... done
COSX-gradient                    ... done
Exchange-correlation gradient    ... done
Dispersion correction            ... done

------------------
CARTESIAN GRADIENT
------------------

   1   C   :   -0.001515258    0.000504464    0.002835175
   2   C   :    0.000049328    0.000052669   -0.003713487
   3   C   :    0.001493086    0.000095730    0.002849460
   4   Br  :   -0.000086084   -0.001429998    0.000830124
   5   H   :   -0.000171434   -0.000079777   -0.000111927
   6   H   :   -0.000146476   -0.000707654    0.000148682
   7   H   :   -0.001238353   -0.000164160    0.002191181
   8   H   :   -0.000055078   -0.003541684    0.003884711
   9   H   :    0.000169229   -0.000006913   -0.000035190
  10   H   :    0.001495136   -0.000332410    0.002156055
  11   H   :    0.000009799   -0.000675314    0.000209317
  12   Br  :   -0.000212962    0.005825778   -0.011984727

Difference to translation invariance:
           :   -0.0002090659   -0.0004592690   -0.0007406276

Norm of the cartesian gradient     ...    0.0160380240
RMS gradient                       ...    0.0026730040
MAX gradient                       ...    0.0119847271

-------
TIMINGS
-------

Total SCF gradient time            ...        2.297 sec

One electron gradient       ....       0.021 sec  (  0.9%)
Prescreening matrices       ....       0.109 sec  (  4.8%)
RI-J Coulomb gradient       ....       0.205 sec  (  8.9%)
COSX gradient               ....       0.883 sec  ( 38.4%)
XC gradient                 ....       0.528 sec  ( 23.0%)
CPCM gradient               ....       0.217 sec  (  9.4%)
   A-Matrix (El+Nuc)        ....       0.005 sec  (  0.2%)
   Potential                ....       0.212 sec  (  9.2%)
[1631208334.823941] [comp0810:208027:0]            sys.c:618  UCX  ERROR shmget(size=2097152 flags=0xfb0) for mm_recv_desc failed: Operation not permitted, please check shared memory limits by 'ipcs -l'
[1631208334.830429] [comp0810:208029:0]            sys.c:618  UCX  ERROR shmget(size=2097152 flags=0xfb0) for mm_recv_desc failed: Operation not permitted, please check shared memory limits by 'ipcs -l'
[1631208334.833058] [comp0810:208028:0]            sys.c:618  UCX  ERROR shmget(size=2097152 flags=0xfb0) for mm_recv_desc failed: Operation not permitted, please check shared memory limits by 'ipcs -l'
[1631208334.832582] [comp0810:208031:0]            sys.c:618  UCX  ERROR shmget(size=2097152 flags=0xfb0) for mm_recv_desc failed: Operation not permitted, please check shared memory limits by 'ipcs -l'
[1631208334.843499] [comp0810:208027:0]            sys.c:618  UCX  ERROR shmget(size=2097152 flags=0xb80) for ucp_am_bufs failed: Operation not permitted, please check shared memory limits by 'ipcs -l'


           ************************************************************
           *        Program running with 4 parallel MPI-processes     *
           *              working on a common directory               *
           ************************************************************
[1631208334.843973] [comp0810:208028:0]            sys.c:618  UCX  ERROR shmget(size=2097152 flags=0xb80) for ucp_am_bufs failed: Operation not permitted, please check shared memory limits by 'ipcs -l'
[1631208334.843925] [comp0810:208031:0]            sys.c:618  UCX  ERROR shmget(size=2097152 flags=0xb80) for ucp_am_bufs failed: Operation not permitted, please check shared memory limits by 'ipcs -l'
[1631208334.855722] [comp0810:208029:0]            sys.c:618  UCX  ERROR shmget(size=2097152 flags=0xb80) for ucp_am_bufs failed: Operation not permitted, please check shared memory limits by 'ipcs -l'

-------------------------------------------------------------------------------
                               ORCA SCF HESSIAN
-------------------------------------------------------------------------------

Hessian of the Kohn-Sham DFT energy:
Kohn-Sham wavefunction type                      ... RKS
Hartree-Fock exchange scaling                    ...    0.250
Number of operators                              ...    1
Number of atoms                                  ...   12
Basis set dimensions                             ...  141
Integral neglect threshold                       ... 2.5e-11
Integral primitive cutoff                        ... 2.5e-12

Setting up DFT Hessian calculations              ... 
Electron density on the grid                     ... found on disk
Electron density on the final grid               ... found on disk
Building xc-kernel on the grid                   ... done   (      0.0 sec)
Building xc-kernel on the final grid             ... done   (      0.0 sec)
                                                     done   (      0.1 sec)

Nuclear repulsion Hessian                        ... done   (      0.0 sec)

----------------------------------------------
Forming right-hand sides of CP-SCF equations     ...
----------------------------------------------
One electron integral derivatives                ... done   (      4.6 sec)
Transforming the overlap derivative matrices     ... done   (      0.0 sec)
[1631208340.624988] [comp0810:208029:0]            sys.c:618  UCX  ERROR shmget(size=6291456 flags=0xfb0) for mm_recv_desc failed: Operation not permitted, please check shared memory limits by 'ipcs -l'
[1631208340.629468] [comp0810:208031:0]            sys.c:618  UCX  ERROR shmget(size=6291456 flags=0xfb0) for mm_recv_desc failed: Operation not permitted, please check shared memory limits by 'ipcs -l'
[1631208340.629449] [comp0810:208027:0]            sys.c:618  UCX  ERROR shmget(size=6291456 flags=0xfb0) for mm_recv_desc failed: Operation not permitted, please check shared memory limits by 'ipcs -l'
Adding tr(S(x)F(y) C-PCM term to the hessian     ... done   (      0.8 sec)
Making the Q(x) pseudodensities                  ... done   (      0.0 sec)
Adding the E*S(x)*S(y) terms to the Hessian      ... done   (      0.0 sec)
Calculating energy weighted overlap derivatives  ... done   (      0.0 sec)
Two electron integral derivatives (RI)           ... done   (      2.9 sec)
Exchange-correlation integral derivatives        ... done   (      5.0 sec)
tr(F(y)Q(x)) contribution to the Hessian         ... done   (      0.0 sec)
Response fock operator R(S(x)) (RIJCOSX)         ... done   (      3.3 sec)
XC Response fock operator R(S(x))                ... done   (      1.9 sec)
tr(F(y)S(x)) contribution to the Hessian         ... done   (      0.0 sec)
Transforming and finalizing RHSs                 ... done   (      0.0 sec)

----------------------------------------------
Solving the CP-SCF equations (RIJCOSX)           ...
----------------------------------------------
     CP-SCF ITERATION   0: 
     CP-SCF ITERATION   1:      0.001169714086
     CP-SCF ITERATION   2:      0.000237368705
     CP-SCF ITERATION   3:      0.000013403920
     CP-SCF ITERATION   4:      0.000000436299
     CP-SCF ITERATION   5:      0.000000023965
     CP-SCF ITERATION   6:      0.000000009989

                                                 ... done   (     19.2 sec)
Forming perturbed density Hessian contributions  ... done   (      0.0 sec)
Calculating [Q*(d^2 A/dXdY)*Q  ] C-PCM term      ... done   (      0.0 sec)
Calculating [d^2(V_N)/(dXdY)*Q ] C-PCM term      ... done   (      0.0 sec)
Calculating [d^2(V_el)/(dXdY)*Q] C-PCM term      ... done   (      0.5 sec)
Calculating C-PCM term that depends on dQ/dX     ... done   (      0.0 sec)
2nd integral derivative contribs (RI)            ... done   (     14.5 sec)
Exchange-correlation Hessian                     ... done   (      5.8 sec)
Dispersion correction in the Hessian             ... done   (      0.6 sec)
Dipol derivatives                                ... done   (      0.3 sec)

Total SCF Hessian time: 0 days 0 hours 1 min 1 sec 

Writing the Hessian file to the disk             ... done


Maximum memory used throughout the entire calculation: 138.4 MB

-----------------------
VIBRATIONAL FREQUENCIES
-----------------------

Scaling factor for frequencies =  1.000000000  (already applied!)

   0:         0.00 cm**-1
   1:         0.00 cm**-1
   2:         0.00 cm**-1
   3:         0.00 cm**-1
   4:         0.00 cm**-1
   5:         0.00 cm**-1
   6:      -385.11 cm**-1 ***imaginary mode***
   7:        95.61 cm**-1
   8:       127.77 cm**-1
   9:       132.66 cm**-1
  10:       151.90 cm**-1
  11:       199.24 cm**-1
  12:       303.00 cm**-1
  13:       338.59 cm**-1
  14:       386.82 cm**-1
  15:       909.05 cm**-1
  16:       930.17 cm**-1
  17:       947.27 cm**-1
  18:       954.09 cm**-1
  19:      1030.70 cm**-1
  20:      1140.15 cm**-1
  21:      1150.59 cm**-1
  22:      1319.82 cm**-1
[...]
     33       0.019057   0.000876  -0.000278  -0.000170  -0.000056   0.000322
     34      -0.001565  -0.006245  -0.001521  -0.006278   0.000709  -0.000003
     35       0.000271   0.039104  -0.003056   0.005845  -0.001756  -0.000040
                 18         19         20         21         22         23    
      0      -0.005935  -0.002480  -0.076037  -0.052259  -0.018126   0.066197
      1      -0.064873  -0.079162   0.054591  -0.085478   0.045156  -0.047755
      2       0.077350   0.076885   0.055604  -0.089770   0.045216  -0.046140
      3       0.003758   0.001448   0.157937   0.015417  -0.098021   0.000564
      4      -0.004269   0.087685  -0.010897   0.123551   0.007654  -0.003120
      5      -0.003773  -0.086013  -0.008053   0.127375   0.004885  -0.002458
      6       0.009459  -0.000643  -0.088740   0.030131  -0.029150  -0.077429
      7       0.066861  -0.079017  -0.044063  -0.091647  -0.041473  -0.036137
      8      -0.075610   0.076857  -0.047040  -0.093045  -0.043072  -0.039215
      9      -0.000314   0.000173   0.000103   0.000068   0.000199   0.000006
     10      -0.000040   0.002871   0.000006   0.001174  -0.000017   0.000097
     11       0.000054  -0.001539   0.000004  -0.000566  -0.000009   0.000062
     12       0.010318  -0.003404  -0.139124  -0.282361   0.195079  -0.104767
     13       0.163611   0.190887   0.118695   0.171318  -0.185309   0.145045
     14      -0.181249  -0.183898   0.114409   0.176332  -0.180591   0.134352
     15      -0.365725  -0.283996  -0.124247   0.383756   0.195706  -0.255331
     16       0.291329   0.290024   0.049749   0.081445  -0.340044   0.390769
     17       0.126665   0.126562   0.058732  -0.061073  -0.023750   0.028976
     18       0.313988   0.296362  -0.116585   0.368174   0.203290  -0.267787
     19      -0.120421  -0.132345   0.056795  -0.058991  -0.027762   0.032374
     20      -0.283893  -0.282759   0.041835   0.098346  -0.338407   0.385310
     21      -0.025258  -0.012384   0.878359   0.011081   0.379987  -0.003794
     22       0.002699  -0.215377  -0.066488   0.136304  -0.030333   0.000474
     23      -0.007490   0.211033  -0.047052   0.136868  -0.019832  -0.000377
     24       0.044024   0.010503  -0.162816   0.324126   0.239535   0.136598
     25      -0.149200   0.191124  -0.090578   0.129145   0.151434   0.120932
     26       0.196671  -0.181737  -0.099461   0.142672   0.159074   0.124300
     27       0.353501  -0.336835  -0.137026  -0.368507   0.239504   0.307235
     28       0.069939  -0.080418  -0.039726  -0.008394  -0.010129  -0.014759
     29       0.253267  -0.248646  -0.031171   0.133315   0.316056   0.358044
     30      -0.420242   0.339233  -0.134186  -0.362695   0.246324   0.313899
     31      -0.223784   0.239333  -0.023719   0.144068   0.309804   0.349621
     32      -0.084299   0.096699  -0.043318  -0.015273   0.004969   0.003091
     33       0.000347  -0.000041   0.000113   0.000012   0.000203   0.000007
     34      -0.000048   0.001629  -0.000010  -0.000626  -0.000018   0.000059
     35       0.000003  -0.002805  -0.000005   0.001189  -0.000007   0.000097
                 24         25         26         27         28         29    
      0       0.023493  -0.009147   0.127520  -0.004651   0.054538  -0.030354
      1      -0.030712  -0.016889  -0.020031  -0.020562  -0.009800   0.026524
      2       0.004251   0.031833  -0.019349   0.023183  -0.009687   0.026306
      3      -0.111610   0.059646  -0.160066   0.008210   0.005559   0.002080
      4       0.007585  -0.004493   0.012482  -0.018296   0.035108  -0.000465
      5       0.006396  -0.002950   0.009871   0.017958   0.035336  -0.000419
      6       0.028053  -0.009219   0.127738  -0.005572  -0.059262  -0.014077
      7       0.024706   0.019129  -0.002018  -0.023843  -0.001377  -0.008479
      8      -0.004866  -0.030097   0.007577   0.022724  -0.003942  -0.009293
      9       0.000006  -0.000161   0.000145  -0.000018  -0.000017   0.000024
     10      -0.000012   0.000015  -0.000017  -0.000117  -0.000075  -0.000024
     11       0.000004   0.000007  -0.000004  -0.000039  -0.000064  -0.000009
     12       0.159478  -0.094916  -0.116749   0.000965  -0.211261   0.357014
     13       0.067728   0.405545   0.232180   0.338191   0.266753   0.169081
     14      -0.362511  -0.208936   0.243150  -0.338772   0.270341   0.173407
     15       0.223967   0.266787  -0.340038   0.351719  -0.198681  -0.004021
     16       0.359133  -0.125341  -0.179704   0.053610  -0.318578   0.096480
     17       0.063527   0.006434  -0.046889   0.028717  -0.061397  -0.574342
     18      -0.190050  -0.314133  -0.324819  -0.334176  -0.188994  -0.012077
     19       0.019643  -0.056528  -0.042222  -0.026651  -0.059148  -0.571876
     20       0.255036  -0.273027  -0.180651  -0.081029  -0.319482   0.097794
     21       0.388002  -0.215273   0.368390  -0.023806   0.004700   0.000188
     22      -0.030893   0.016656  -0.029102  -0.012387   0.040384  -0.000139
     23      -0.020602   0.011966  -0.017507   0.016529   0.041992  -0.000121
     24       0.181782  -0.131708  -0.161782   0.012476   0.286301   0.117699
     25      -0.073934  -0.388535  -0.162655   0.364241   0.232898  -0.083814
     26       0.310788   0.211700  -0.252627  -0.345738   0.260112  -0.082436
     27      -0.192560  -0.268719  -0.255759   0.348333   0.147652   0.024550
     28       0.009381   0.094443   0.073576  -0.079905  -0.081187   0.226674
     29      -0.233635   0.299867   0.189825  -0.116403  -0.349909  -0.036979
     30       0.131914   0.273169  -0.325782  -0.329710   0.152636   0.017238
     31      -0.367971   0.080193   0.223590   0.116709  -0.355920  -0.043470
     32      -0.082302  -0.034791   0.087791   0.068757  -0.088375   0.228141
     33       0.000160   0.000072   0.000136  -0.000005  -0.000012   0.000027
     34      -0.000012  -0.000010  -0.000004   0.000033  -0.000056  -0.000006
     35       0.000006   0.000009  -0.000002   0.000127  -0.000086  -0.000031
                 30         31         32         33         34         35    
      0      -0.012291  -0.000799  -0.000466  -0.062296  -0.002186  -0.003263
      1       0.010637  -0.057311  -0.031233  -0.049348  -0.001887  -0.000213
      2       0.010520   0.057212   0.031170  -0.050427  -0.001884  -0.000303
      3      -0.000996   0.000003  -0.000005   0.000812   0.000584  -0.007998
      4      -0.000621  -0.000344  -0.001040   0.001151  -0.001227  -0.060764
      5      -0.000652   0.000265   0.000988   0.001208  -0.001232  -0.062359
      6       0.036275   0.001056  -0.001858   0.001906  -0.048937   0.003186
      7       0.021709   0.031658  -0.057773  -0.002036   0.057036  -0.000757
      8       0.023649  -0.031027   0.056528  -0.002052   0.056570  -0.000668
      9      -0.000016   0.000052  -0.000020   0.000005   0.000002  -0.000005
     10      -0.000055  -0.000027  -0.000069   0.000037  -0.000032  -0.000115
     11      -0.000009  -0.000011  -0.000019  -0.000012   0.000011   0.000180
     12       0.143780   0.000993   0.001005   0.738904   0.028195   0.022876
     13       0.066811  -0.007454  -0.003494   0.339198   0.013021   0.007843
     14       0.068552   0.008364   0.004441   0.348164   0.013351   0.008168
     15      -0.001566  -0.001780  -0.000383  -0.005563   0.000150  -0.001247
     16       0.037423   0.090140   0.048783  -0.059489  -0.002142  -0.000888
     17      -0.226660  -0.609356  -0.333349   0.317711   0.010278   0.011262
     18      -0.004777   0.010203   0.004998  -0.001119   0.000258  -0.000978
     19      -0.225933   0.612518   0.334869   0.313805   0.010598   0.010504
     20       0.037971  -0.092342  -0.049962  -0.059891  -0.002231  -0.000885
     21      -0.000064   0.000055  -0.000074  -0.003922   0.001769   0.091765
     22       0.000015  -0.000918  -0.003968  -0.021885   0.021107   0.691651
     23       0.000037   0.001415   0.004146  -0.022579   0.021609   0.709715
     24      -0.303167  -0.001636   0.002431  -0.022576   0.642163  -0.021039
     25       0.212136   0.005761  -0.009501   0.015355  -0.438980   0.011341
     26       0.208410  -0.003211   0.005579   0.015085  -0.430948   0.011007
     27      -0.062134  -0.037973   0.070667   0.001960  -0.040630   0.002595
     28      -0.571436  -0.332608   0.608415   0.012227  -0.309291   0.010920
     29       0.091580   0.047246  -0.085655  -0.002094   0.056872  -0.000969
     30      -0.043665   0.027147  -0.050911   0.001594  -0.029779   0.002238
     31       0.107759  -0.056289   0.102186  -0.002488   0.064614  -0.001271
     32      -0.574022   0.331421  -0.606323   0.012571  -0.304056   0.010814
     33      -0.000014  -0.000054   0.000021   0.000003  -0.000000   0.000005
     34      -0.000006   0.000009   0.000015  -0.000014   0.000014   0.000184
     35      -0.000058   0.000028   0.000074   0.000037  -0.000034  -0.000110


-----------
IR SPECTRUM
-----------

 Mode    freq (cm**-1)   T**2         TX         TY         TZ
-------------------------------------------------------------------
   7:        87.64    3.250498  ( -0.179495  -1.209036  -1.325334)
   8:       111.71    0.268209  ( -0.027307   0.405521   0.320961)
   9:       114.30   18.600936  (  0.515683   2.981669   3.073216)
  10:       140.61   10.505703  (  3.210677  -0.421651  -0.139516)
  11:       200.87   31.482598  (  0.173591   4.000794  -3.930154)
  12:       264.05    0.099337  ( -0.026224  -0.226371   0.217727)
  13:       313.88   83.525467  ( -0.214571  -6.558176   6.361585)
  14:       389.98    1.007336  (  0.102690   0.612256   0.788628)
  15:       857.17   27.168501  ( -0.170860  -3.753132   3.612936)
  16:       909.16   10.343127  ( -0.368295  -2.307202  -2.210047)
  17:       922.90    0.002563  ( -0.012131   0.040949   0.027181)
  18:       930.70    0.031395  ( -0.020098  -0.158334  -0.076952)
  19:      1022.11  313.430234  (  0.341127  12.707541 -12.322024)
  20:      1136.49   14.752726  (  3.830124  -0.142273  -0.250274)
  21:      1143.94   61.111885  (  0.707132   5.396254   5.611799)
  22:      1313.84    7.067305  (  2.649571  -0.211905  -0.046648)
  23:      1350.49   54.344326  (  0.714778   5.132072   5.243591)
  24:      1412.59   14.670864  ( -3.804861   0.391297   0.201949)
  25:      1413.68    3.761003  (  1.928156  -0.170237  -0.119316)
  26:      1424.35   40.430521  ( -6.335775   0.504601   0.183986)
  27:      1431.33    6.027242  (  0.251973   1.683938  -1.768644)
  28:      1443.37   14.493631  ( -0.296954  -2.669172  -2.698327)
  29:      3065.09    3.108693  ( -1.522214   0.682187   0.571120)
  30:      3067.91    3.178044  (  0.838249   1.085380   1.139005)
  31:      3152.84    2.078196  ( -0.014323  -1.014057   1.024539)
  32:      3155.90   24.212457  ( -0.117574  -3.517832   3.438530)
  33:      3192.52    6.558193  ( -2.400075  -0.637362  -0.625783)
  34:      3196.86    7.404559  ( -2.429527   0.894094   0.838185)
  35:      3344.92    0.146793  ( -0.033251  -0.234176  -0.301411)

The first frequency considered to be a vibration is 7
The total number of vibrations considered is 29


--------------------------
THERMOCHEMISTRY AT 298.15K
--------------------------

Temperature         ... 298.15 K
Pressure            ... 1.00 atm
Total Mass          ... 202.89 AMU

Throughout the following assumptions are being made:
  (1) The electronic state is orbitally nondegenerate
  (2) There are no thermally accessible electronically excited states
  (3) Hindered rotations indicated by low frequency modes are not
      treated as such but are treated as vibrations and this may
      cause some error
  (4) All equations used are the standard statistical mechanics
      equations for an ideal gas
  (5) All vibrations are strictly harmonic

freq.      87.64  E(vib)   ...       0.48 
freq.     111.71  E(vib)   ...       0.45 
freq.     114.30  E(vib)   ...       0.44 
freq.     140.61  E(vib)   ...       0.41 
freq.     200.87  E(vib)   ...       0.35 
freq.     264.05  E(vib)   ...       0.29 
freq.     313.88  E(vib)   ...       0.25 
freq.     389.98  E(vib)   ...       0.20 
freq.     857.17  E(vib)   ...       0.04 
freq.     909.16  E(vib)   ...       0.03 
freq.     922.90  E(vib)   ...       0.03 
freq.     930.70  E(vib)   ...       0.03 
freq.    1022.11  E(vib)   ...       0.02 
freq.    1136.49  E(vib)   ...       0.01 
freq.    1143.94  E(vib)   ...       0.01 
freq.    1313.84  E(vib)   ...       0.01 
freq.    1350.49  E(vib)   ...       0.01 
freq.    1412.59  E(vib)   ...       0.00 
freq.    1413.68  E(vib)   ...       0.00 
freq.    1424.35  E(vib)   ...       0.00 
freq.    1431.33  E(vib)   ...       0.00 
freq.    1443.37  E(vib)   ...       0.00 
freq.    3065.09  E(vib)   ...       0.00 
freq.    3067.91  E(vib)   ...       0.00 
freq.    3152.84  E(vib)   ...       0.00 
freq.    3155.90  E(vib)   ...       0.00 
freq.    3192.52  E(vib)   ...       0.00 
freq.    3196.86  E(vib)   ...       0.00 
freq.    3344.92  E(vib)   ...       0.00 

------------
INNER ENERGY
------------

The inner energy is: U= E(el) + E(ZPE) + E(vib) + E(rot) + E(trans)
    E(el)   - is the total energy from the electronic structure calculation
              = E(kin-el) + E(nuc-el) + E(el-el) + E(nuc-nuc)
    E(ZPE)  - the the zero temperature vibrational energy from the frequency calculation
    E(vib)  - the the finite temperature correction to E(ZPE) due to population
              of excited vibrational states
    E(rot)  - is the rotational thermal energy
    E(trans)- is the translational thermal energy

Summary of contributions to the inner energy U:
Electronic energy                ...  -5265.55268461 Eh
Zero point energy                ...      0.09229132 Eh      57.91 kcal/mol
Thermal vibrational correction   ...      0.00493016 Eh       3.09 kcal/mol
Thermal rotational correction    ...      0.00141627 Eh       0.89 kcal/mol
Thermal translational correction ...      0.00141627 Eh       0.89 kcal/mol
-----------------------------------------------------------------------
Total thermal energy                  -5265.45263059 Eh


Summary of corrections to the electronic energy:
(perhaps to be used in another calculation)
Total thermal correction                  0.00776270 Eh       4.87 kcal/mol
Non-thermal (ZPE) correction              0.09229132 Eh      57.91 kcal/mol
-----------------------------------------------------------------------
Total correction                          0.10005402 Eh      62.78 kcal/mol


--------
ENTHALPY
--------

The enthalpy is H = U + kB*T
                kB is Boltzmann's constant
Total free energy                 ...  -5265.45263059 Eh 
Thermal Enthalpy correction       ...      0.00094421 Eh       0.59 kcal/mol
-----------------------------------------------------------------------
Total Enthalpy                    ...  -5265.45168638 Eh


Note: Only C1 symmetry has been detected, increase convergence thresholds 
      if your molecule has a higher symmetry. Symmetry factor of 1.0 is   
      used for the rotational entropy correction. 
 

Note: Rotational entropy computed according to Herzberg 
Infrared and Raman Spectra, Chapter V,1, Van Nostrand Reinhold, 1945 
Point Group:  C1, Symmetry Number:   1  
Rotational constants in cm-1:     0.147622     0.015138     0.015120 

Vibrational entropy computed according to the QRRHO of S. Grimme
Chem.Eur.J. 2012 18 9955


-------
ENTROPY
-------

The entropy contributions are T*S = T*(S(el)+S(vib)+S(rot)+S(trans))
     S(el)   - electronic entropy
     S(vib)  - vibrational entropy
     S(rot)  - rotational entropy
     S(trans)- translational entropy
The entropies will be listed as mutliplied by the temperature to get
units of energy

Electronic entropy                ...      0.00000000 Eh      0.00 kcal/mol
Vibrational entropy               ...      0.00905017 Eh      5.68 kcal/mol
Rotational entropy                ...      0.01437116 Eh      9.02 kcal/mol
Translational entropy             ...      0.01987324 Eh     12.47 kcal/mol
-----------------------------------------------------------------------
Final entropy term                ...      0.04329456 Eh     27.17 kcal/mol

In case the symmetry of your molecule has not been determined correctly
or in case you have a reason to use a different symmetry number we print 
out the resulting rotational entropy values for sn=1,12 :
 --------------------------------------------------------
|  sn= 1 | S(rot)=       0.01437116 Eh      9.02 kcal/mol|
|  sn= 2 | S(rot)=       0.01371670 Eh      8.61 kcal/mol|
|  sn= 3 | S(rot)=       0.01333387 Eh      8.37 kcal/mol|
|  sn= 4 | S(rot)=       0.01306225 Eh      8.20 kcal/mol|
|  sn= 5 | S(rot)=       0.01285156 Eh      8.06 kcal/mol|
|  sn= 6 | S(rot)=       0.01267941 Eh      7.96 kcal/mol|
|  sn= 7 | S(rot)=       0.01253387 Eh      7.87 kcal/mol|
|  sn= 8 | S(rot)=       0.01240779 Eh      7.79 kcal/mol|
|  sn= 9 | S(rot)=       0.01229658 Eh      7.72 kcal/mol|
|  sn=10 | S(rot)=       0.01219710 Eh      7.65 kcal/mol|
|  sn=11 | S(rot)=       0.01210711 Eh      7.60 kcal/mol|
|  sn=12 | S(rot)=       0.01202496 Eh      7.55 kcal/mol|
 --------------------------------------------------------


-------------------
GIBBS FREE ENERGY
-------------------

The Gibbs free energy is G = H - T*S

Total enthalpy                    ...  -5265.45168638 Eh 
Total entropy correction          ...     -0.04329456 Eh    -27.17 kcal/mol
-----------------------------------------------------------------------
Final Gibbs free energy         ...  -5265.49498094 Eh

For completeness - the Gibbs free energy minus the electronic energy
G-E(el)                           ...      0.05770367 Eh     36.21 kcal/mol

[1631208675.579912] [comp0810:211042:0]            sys.c:618  UCX  ERROR shmget(size=2097152 flags=0xfb0) for mm_recv_desc failed: Operation not permitted, please check shared memory limits by 'ipcs -l'
[1631208675.580878] [comp0810:211044:0]            sys.c:618  UCX  ERROR shmget(size=2097152 flags=0xfb0) for mm_recv_desc failed: Operation not permitted, please check shared memory limits by 'ipcs -l'
[1631208675.587115] [comp0810:211043:0]            sys.c:618  UCX  ERROR shmget(size=2097152 flags=0xfb0) for mm_recv_desc failed: Operation not permitted, please check shared memory limits by 'ipcs -l'
[1631208675.588982] [comp0810:211045:0]            sys.c:618  UCX  ERROR shmget(size=2097152 flags=0xfb0) for mm_recv_desc failed: Operation not permitted, please check shared memory limits by 'ipcs -l'
[1631208675.596601] [comp0810:211044:0]            sys.c:618  UCX  ERROR shmget(size=2097152 flags=0xb80) for ucp_am_bufs failed: Operation not permitted, please check shared memory limits by 'ipcs -l'
[1631208675.596581] [comp0810:211042:0]            sys.c:618  UCX  ERROR shmget(size=2097152 flags=0xb80) for ucp_am_bufs failed: Operation not permitted, please check shared memory limits by 'ipcs -l'
[1631208675.597034] [comp0810:211043:0]            sys.c:618  UCX  ERROR shmget(size=2097152 flags=0xb80) for ucp_am_bufs failed: Operation not permitted, please check shared memory limits by 'ipcs -l'
[1631208675.597044] [comp0810:211045:0]            sys.c:618  UCX  ERROR shmget(size=2097152 flags=0xb80) for ucp_am_bufs failed: Operation not permitted, please check shared memory limits by 'ipcs -l'

Timings for individual modules:

Sum of individual times         ...      361.483 sec (=   6.025 min)
GTO integral calculation        ...       19.940 sec (=   0.332 min)   5.5 %
SCF iterations                  ...      162.019 sec (=   2.700 min)  44.8 %
SCF Gradient evaluation         ...       53.187 sec (=   0.886 min)  14.7 %
Geometry relaxation             ...        2.425 sec (=   0.040 min)   0.7 %
Analytical frequency calculation...      123.912 sec (=   2.065 min)  34.3 %
                             ****ORCA TERMINATED NORMALLY****
TOTAL RUN TIME: 0 days 0 hours 6 minutes 6 seconds 364 msec
