
                                 *****************
                                 * O   R   C   A *
                                 *****************

           --- An Ab Initio, DFT and Semiempirical electronic structure package ---

                  #######################################################
                  #                        -***-                        #
                  #          Department of theory and spectroscopy      #
                  #               Directorship: Frank Neese             #
                  #        Max Planck Institute fuer Kohlenforschung    #
                  #                Kaiser Wilhelm Platz 1               #
                  #                 D-45470 Muelheim/Ruhr               #
                  #                      Germany                        #
                  #                                                     #
                  #                  All rights reserved                #
                  #                        -***-                        #
                  #######################################################


                         Program Version 4.2.1 -  RELEASE  -


 With contributions from (in alphabetic order):
   Daniel Aravena         : Magnetic Suceptibility
   Michael Atanasov       : Ab Initio Ligand Field Theory (pilot matlab implementation)
   Alexander A. Auer      : GIAO ZORA, VPT2
   Ute Becker             : Parallelization
   Giovanni Bistoni       : ED, misc. LED, open-shell LED, HFLD
   Martin Brehm           : Molecular dynamics
   Dmytro Bykov           : SCF Hessian
   Vijay G. Chilkuri      : MRCI spin determinant printing, contributions to CSF-ICE
   Dipayan Datta          : RHF DLPNO-CCSD density
   Achintya Kumar Dutta   : EOM-CC, STEOM-CC
   Dmitry Ganyushin       : Spin-Orbit,Spin-Spin,Magnetic field MRCI
   Miquel Garcia          : C-PCM Hessian, Gaussian charge scheme
   Yang Guo               : DLPNO-NEVPT2, CIM, IAO-localization
   Andreas Hansen         : Spin unrestricted coupled pair/coupled cluster methods
   Benjamin Helmich-Paris : CASSCF linear response (MC-RPA)
   Lee Huntington         : MR-EOM, pCC
   Robert Izsak           : Overlap fitted RIJCOSX, COSX-SCS-MP3, EOM
   Christian Kollmar      : KDIIS, OOCD, Brueckner-CCSD(T), CCSD density
   Simone Kossmann        : Meta GGA functionals, TD-DFT gradient, OOMP2, MP2 Hessian
   Martin Krupicka        : AUTO-CI
   Lucas Lang             : DCDCAS
   Dagmar Lenk            : GEPOL surface, SMD
   Dimitrios Liakos       : Extrapolation schemes; Compound Job, initial MDCI parallelization
   Dimitrios Manganas     : Further ROCIS development; embedding schemes
   Dimitrios Pantazis     : SARC Basis sets
   Taras Petrenko         : DFT Hessian,TD-DFT gradient, ASA, ECA, R-Raman, ABS, FL, XAS/XES, NRVS
   Peter Pinski           : DLPNO-MP2, DLPNO-MP2 Gradient
   Christoph Reimann      : Effective Core Potentials
   Marius Retegan         : Local ZFS, SOC
   Christoph Riplinger    : Optimizer, TS searches, QM/MM, DLPNO-CCSD(T), (RO)-DLPNO pert. Triples
   Tobias Risthaus        : Range-separated hybrids, TD-DFT gradient, RPA, STAB
   Michael Roemelt        : Original ROCIS implementation
   Masaaki Saitow         : Open-shell DLPNO-CCSD energy and density
   Barbara Sandhoefer     : DKH picture change effects
   Avijit Sen             : IP-ROCIS
   Kantharuban Sivalingam : CASSCF convergence, NEVPT2, FIC-MRCI
   Bernardo de Souza      : ESD, SOC TD-DFT
   Georgi Stoychev        : AutoAux, RI-MP2 NMR
   Willem Van den Heuvel  : Paramagnetic NMR
   Boris Wezisla          : Elementary symmetry handling
   Frank Wennmohs         : Technical directorship


 We gratefully acknowledge several colleagues who have allowed us to
 interface, adapt or use parts of their codes:
   Stefan Grimme, W. Hujo, H. Kruse,             : VdW corrections, initial TS optimization,
                  C. Bannwarth                     DFT functionals, gCP, sTDA/sTD-DF
   Ed Valeev, F. Pavosevic, A. Kumar             : LibInt (2-el integral package), F12 methods
   Garnet Chan, S. Sharma, J. Yang, R. Olivares  : DMRG
   Ulf Ekstrom                                   : XCFun DFT Library
   Mihaly Kallay                                 : mrcc  (arbitrary order and MRCC methods)
   Andreas Klamt, Michael Diedenhofen            : otool_cosmo (COSMO solvation model)
   Jiri Pittner, Ondrej Demel                    : Mk-CCSD
   Frank Weinhold                                : gennbo (NPA and NBO analysis)
   Christopher J. Cramer and Donald G. Truhlar   : smd solvation model
   Lars Goerigk                                  : TD-DFT with DH, B97 family of functionals
   V. Asgeirsson, H. Jonsson                     : NEB implementation
   FAccTs GmbH                                   : IRC, NEB, NEB-TS, Multilevel, MM, QM/MM, CI optimization
   S Lehtola, MJT Oliveira, MAL Marques          : LibXC Library


 Your calculation uses the libint2 library for the computation of 2-el integrals
 For citations please refer to: http://libint.valeyev.net

 Your ORCA version has been built with support for libXC version: 4.2.3
 For citations please refer to: https://tddft.org/programs/libxc/

 This ORCA versions uses:
   CBLAS   interface :  Fast vector & matrix operations
   LAPACKE interface :  Fast linear algebra routines
   SCALAPACK package :  Parallel linear algebra routines


Your calculation utilizes the atom-pairwise dispersion correction
with the Becke-Johnson damping scheme (D3BJ)
Cite in your paper:
S.Grimme, S.Ehrlich, L.Goerigk, J Comput Chem, (2011), 32, 1456–1465 
S.Grimme, J.Antony, S.Ehrlich and H.Krieg, J.Chem.Phys., 132, (2010), 154104 
   

----- Orbital basis set information -----
Your calculation utilizes the basis: def2-SVP
   F. Weigend and R. Ahlrichs, Phys. Chem. Chem. Phys. 7, 3297 (2005).

----- AuxJ basis set information -----
Your calculation utilizes the auxiliary basis: def2/J
   F. Weigend, Phys. Chem. Chem. Phys. 8, 1057 (2006).

cite the ECPs for I  [Def2-ECP] as follows:
Ce-Yb(ecp-28): M. Dolg, H. Stoll, H.Preuss, J. Chem. Phys., 1989, 90, 1730-1734.
Y-Cd(ecp-28), Hf-Hg(ecp-46): D. Andrae,U. Haeussermann, M. Dolg, H. Stoll, H. Preuss, Theor. Chim. Acta, 1990, 77, 123-141.
In-Sb(ecp-28), Tl-Bi(ecp-46): B. Metz, H. Stoll, M. Dolg, J. Chem. Phys., 2000, 113, 2563-2569.
Te-Xe(ecp-28), Po-Rn(ecp-46): K. A. Peterson, D. Figgen, E. Goll, H. Stoll, M. Dolg, J. Chem. Phys., 2003, 119, 11113-11123.
Rb(ecp-28), Cs(ecp-46): T. Leininger, A. Nicklass, W. Kuechle, H. Stoll, M. Dolg, A. Bergner, Chem. Phys. Lett., 1996, 255, 274-280.
Sr(ecp-28), Ba(ecp-46): M. Kaupp, P. V. Schleyer, H. Stoll and H. Preuss, J. Chem. Phys., 1991, 94, 1360-1366.
La(ecp-46): M. Dolg, H. Stoll, A. Savin, H. Preuss, Theor. Chim. Acta, 1989, 75, 173-194.
Lu(ecp-28): X. Cao, M. Dolg, J. Chem. Phys., 2001, 115, 7348-7355.

ECP parameters for I  [Def2-ECP] have been obtained from:
TURBOMOLE (7.0.2)

================================================================================
                                        WARNINGS
                       Please study these warnings very carefully!
================================================================================


WARNING: Geometry Optimization
  ===> : Switching off AutoStart
         For restart on a previous wavefunction, please use MOREAD

INFO   : the flag for use of LIBINT has been found!

================================================================================
                                       INPUT FILE
================================================================================
NAME = manual_355.inp
|  1> ! OptTS Freq PBE0 RIJCOSX D3BJ def2-SVP def2/J CPCM(Acetone)
|  2> %geom
|  3> modify_internal
|  4> { B 1 8 A } end
|  5> end
|  6> %geom
|  7> modify_internal
|  8> { B 1 2 A } end
|  9> end
| 10> %geom
| 11> Constraints
| 12> {C 8 C}
| 13> {C 2 C}
| 14> end
| 15> end
| 16> %output 
| 17> xyzfile=True 
| 18> end 
| 19> %scf 
| 20> maxiter 250 
| 21> end
| 22> %output
| 23> Print[P_Hirshfeld] = 1
| 24> end
| 25> % maxcore
| 26> 4000
| 27> %geom
| 28> Calc_Hess true
| 29> Recalc_Hess 30
| 30> Trust -0.1
| 31> MaxIter 150
| 32> end
| 33> %pal nprocs 4
| 34> end
| 35> *xyz -1 1
| 36> C    5.00772819   0.05801716   0.09109776 
| 37> C    6.13650576  -0.90426473   0.08928466 
| 38> I    8.57887323   1.37093171  -0.40733212 
| 39> H    4.06226325  -0.48394652   0.24581490 
| 40> H    5.11321620   0.78630404   0.90660354 
| 41> H    4.93637965   0.58316443  -0.87165318 
| 42> H    6.59221753  -1.21573836  -0.85147473 
| 43> H    6.76788637  -1.01567305   0.97120024 
| 44> Cl   5.13643358  -3.04963062   0.41863774 
| 45> *
| 46> 
| 47>                          ****END OF INPUT****
================================================================================

                       *****************************
                       * Geometry Optimization Run *
                       *****************************

Geometry optimization settings:
Update method            Update   .... Bofill
Choice of coordinates    CoordSys .... Z-matrix Internals
Initial Hessian          InHess   .... Almoef's Model

Convergence Tolerances:
Energy Change            TolE     ....  5.0000e-06 Eh
Max. Gradient            TolMAXG  ....  3.0000e-04 Eh/bohr
RMS Gradient             TolRMSG  ....  1.0000e-04 Eh/bohr
Max. Displacement        TolMAXD  ....  4.0000e-03 bohr
RMS Displacement         TolRMSD  ....  2.0000e-03 bohr
Strict Convergence                ....  False
------------------------------------------------------------------------------
                        ORCA OPTIMIZATION COORDINATE SETUP
------------------------------------------------------------------------------

The optimization will be done in new redundant internal coordinates
Making redundant internal coordinates   ...  (new redundants) Bond   8,  1 is already included
Bond   2,  1 is already included
done
Following TS mode number                ...     0
Evaluating the initial hessian          ...  (Is done on the fly) done
Evaluating the coordinates              ...  done
Calculating the B-matrix                .... done
Calculating the G-matrix                .... done
Diagonalizing the G-matrix              .... done
Imposing constraints:
 Iter   0:  RMS(Cart)=    0.0000000000 RMS(Int)=    0.0000000000
CONVERGED
Will constrain atom 2 coordinate 1 
Will constrain atom 2 coordinate 2 
Will constrain atom 2 coordinate 3 
Will constrain atom 8 coordinate 1 
Will constrain atom 8 coordinate 2 
Will constrain atom 8 coordinate 3 
The first mode is                       ....   38
The number of degrees of freedom        ....   26
Storing new coordinates                 .... done

    -----------------------------------------------------------------
                    Redundant Internal Coordinates


    -----------------------------------------------------------------
         Definition                    Initial Value    d2E/dq (diagonal element)
    -----------------------------------------------------------------
      1. B(C   1,C   0)                  1.4833         0.000000   
      2. B(I   2,C   0)                  3.8373         0.000000   
      3. B(I   2,C   1)                  3.3747         0.000000   
      4. B(H   3,C   0)                  1.1007         0.000000   
      5. B(H   4,C   0)                  1.0984         0.000000   
      6. B(H   4,I   2)                  3.7522         0.000000   
      7. B(H   5,I   2)                  3.7555         0.000000   
      8. B(H   5,C   0)                  1.0990         0.000000   
      9. B(H   6,C   1)                  1.0907         0.000000   
     10. B(H   6,I   2)                  3.2916         0.000000   
     11. B(H   7,I   2)                  3.2979         0.000000   
     12. B(H   7,C   1)                  1.0903         0.000000   
     13. B(Cl  8,H   6)                  2.6638         0.000000   
     14. B(Cl  8,H   7)                  2.6653         0.000000   
     15. B(Cl  8,C   1)                  2.3898         0.000000   
     16. B(Cl  8,H   3)                  2.7868         0.000000   
     17. A(H   3,C   0,H   5)          107.6170         0.000000   
     18. A(C   1,C   0,I   2)           60.8956         0.000000   
     19. A(I   2,C   0,H   5)           77.4753         0.000000   
     20. A(I   2,C   0,H   4)           77.3036         0.000000   
     21. A(C   1,C   0,H   3)          109.5366         0.000000   
     22. A(C   1,C   0,H   4)          110.9749         0.000000   
     23. A(I   2,C   0,H   3)          170.4322         0.000000   
     24. A(H   3,C   0,H   4)          107.7333         0.000000   
     25. A(H   4,C   0,H   5)          109.8648         0.000000   
     26. A(C   1,C   0,H   5)          110.9983         0.000000   
     27. A(C   0,C   1,Cl  8)          105.2936         0.000000   
     28. A(H   6,C   1,Cl  8)           92.1406         0.000000   
     29. A(H   7,C   1,Cl  8)           92.2424         0.000000   
     30. A(I   2,C   1,Cl  8)          158.1843         0.000000   
     31. A(C   0,C   1,H   6)          120.2821         0.000000   
     32. A(C   0,C   1,H   7)          120.3959         0.000000   
     33. A(C   0,C   1,I   2)           96.5203         0.000000   
     34. A(H   6,C   1,H   7)          115.2466         0.000000   
     35. A(I   2,C   1,H   6)           76.3036         0.000000   
     36. A(I   2,C   1,H   7)           76.6337         0.000000   
     37. A(C   0,I   2,C   1)           22.5840         0.000000   
     38. D(Cl  8,C   1,C   0,H   3)      0.3188         0.000000   
     39. D(Cl  8,C   1,C   0,H   4)    119.1454         0.000000   
     40. D(Cl  8,C   1,C   0,H   5)   -118.3785         0.000000   
     41. D(H   6,C   1,C   0,H   3)    102.1201         0.000000   
     42. D(H   7,C   1,C   0,H   5)    139.6495         0.000000   
     43. D(H   6,C   1,C   0,H   4)   -139.0533         0.000000   
     44. D(H   6,C   1,C   0,H   5)    -16.5773         0.000000   
     45. D(H   7,C   1,C   0,H   4)     17.1735         0.000000   
     46. D(H   6,C   1,C   0,I   2)    -77.9225         0.000000   
     47. D(Cl  8,C   1,C   0,I   2)   -179.7238         0.000000   
     48. D(I   2,C   1,C   0,H   3)   -179.9574         0.000000   
     49. D(I   2,C   1,C   0,H   4)    -61.1308         0.000000   
     50. D(I   2,C   1,C   0,H   5)     61.3453         0.000000   
     51. D(H   7,C   1,C   0,I   2)     78.3043         0.000000   
     52. D(H   7,C   1,C   0,H   3)   -101.6532         0.000000   
     53. D(C   1,I   2,C   0,H   3)      0.2414         0.000000   
     54. D(C   1,I   2,C   0,H   4)    123.0504         0.000000   
     55. D(C   1,I   2,C   0,H   5)   -122.9420         0.000000   
     56. D(C   0,I   2,C   1,H   6)    119.6395         0.000000   
     57. D(C   0,I   2,C   1,H   7)   -119.7547         0.000000   
     58. D(C   0,I   2,C   1,Cl  8)    179.2830         0.000000   
     59. C_2(I   2)                     -0.4073         0.000000 C 
     60. C_0(I   2)                      8.5789         0.000000 C 
     61. C_1(I   2)                      1.3709         0.000000 C 
     62. C_2(Cl  8)                      0.4186         0.000000 C 
     63. C_1(Cl  8)                     -3.0496         0.000000 C 
     64. C_0(Cl  8)                      5.1364         0.000000 C 
    -----------------------------------------------------------------

Number of atoms                         .... 9
Number of degrees of freedom            .... 64

         *************************************************************
         *                GEOMETRY OPTIMIZATION CYCLE   1            *
         *************************************************************
---------------------------------
CARTESIAN COORDINATES (ANGSTROEM)
---------------------------------
  C      5.007728    0.058017    0.091098
  C      6.136506   -0.904265    0.089285
  I      8.578873    1.370932   -0.407332
  H      4.062263   -0.483947    0.245815
  H      5.113216    0.786304    0.906604
  H      4.936380    0.583164   -0.871653
  H      6.592218   -1.215738   -0.851475
  H      6.767886   -1.015673    0.971200
  Cl     5.136434   -3.049631    0.418638

----------------------------
CARTESIAN COORDINATES (A.U.)
----------------------------
  NO LB      ZA    FRAG     MASS         X           Y           Z
   0 C     6.0000    0    12.011    9.463235    0.109637    0.172150
   1 C     6.0000    0    12.011   11.596315   -1.708813    0.168724
   2 I    25.0000*   0   126.900   16.211721    2.590685   -0.769746
   3 H     1.0000    0     1.008    7.676565   -0.914526    0.464523
   4 H     1.0000    0     1.008    9.662578    1.485899    1.713232
   5 H     1.0000    0     1.008    9.328406    1.102021   -1.647186
   6 H     1.0000    0     1.008   12.457486   -2.297413   -1.609054
   7 H     1.0000    0     1.008   12.789452   -1.919344    1.835302
   8 Cl   17.0000    0    35.453    9.706453   -5.762967    0.791111
* core charge reduced due to ECP

--------------------------------
INTERNAL COORDINATES (ANGSTROEM)
--------------------------------
 C      0   0   0     0.000000000000     0.00000000     0.00000000
 C      1   0   0     1.483283022787     0.00000000     0.00000000
 I      2   1   0     3.374656415886    96.52031130     0.00000000
 H      1   2   3     1.100711577398   109.53659724   180.04257980
 H      1   2   3     1.098443979931   110.97488846   298.86920198
 H      1   2   3     1.098981183560   110.99831082    61.34525553
 H      2   1   3     1.090741614396   120.28211579   282.07748354
 H      2   1   3     1.090334067475   120.39590177    78.30426052
 Cl     2   1   3     2.389814348122   105.29364904   180.27623283

---------------------------
INTERNAL COORDINATES (A.U.)
---------------------------
 C      0   0   0     0.000000000000     0.00000000     0.00000000
 C      1   0   0     2.802998692163     0.00000000     0.00000000
 I      2   1   0     6.377176422105    96.52031130     0.00000000
 H      1   2   3     2.080043433719   109.53659724   180.04257980
 H      1   2   3     2.075758295525   110.97488846   298.86920198
 H      1   2   3     2.076773463261   110.99831082    61.34525553
 H      2   1   3     2.061202934079   120.28211579   282.07748354
 H      2   1   3     2.060432782012   120.39590177    78.30426052
 Cl     2   1   3     4.516094628867   105.29364904   180.27623283

---------------------
BASIS SET INFORMATION
---------------------
There are 4 groups of distinct atoms

 Group   1 Type C   : 7s4p1d contracted to 3s2p1d pattern {511/31/1}
 Group   2 Type I   : 10s7p6d contracted to 4s4p2d pattern {6211/4111/51}
 Group   3 Type H   : 4s1p contracted to 2s1p pattern {31/1}
 Group   4 Type Cl  : 10s7p1d contracted to 4s3p1d pattern {5311/511/1}

Atom   0C    basis set group =>   1
Atom   1C    basis set group =>   1
Atom   2I    basis set group =>   2
Atom   3H    basis set group =>   3
Atom   4H    basis set group =>   3
Atom   5H    basis set group =>   3
Atom   6H    basis set group =>   3
Atom   7H    basis set group =>   3
Atom   8Cl   basis set group =>   4
---------------------------------
AUXILIARY/J BASIS SET INFORMATION
---------------------------------
There are 4 groups of distinct atoms

 Group   1 Type C   : 12s5p4d2f1g contracted to 6s4p3d1f1g pattern {711111/2111/211/2/1}
 Group   2 Type I   : 11s5p5d3f1g contracted to 8s4p3d2f1g pattern {41111111/2111/311/21/1}
 Group   3 Type H   : 5s2p1d contracted to 3s1p1d pattern {311/2/1}
 Group   4 Type Cl  : 14s5p5d2f1g contracted to 8s4p3d1f1g pattern {71111111/2111/311/2/1}

Atom   0C    basis set group =>   1
Atom   1C    basis set group =>   1
Atom   2I    basis set group =>   2
Atom   3H    basis set group =>   3
Atom   4H    basis set group =>   3
Atom   5H    basis set group =>   3
Atom   6H    basis set group =>   3
Atom   7H    basis set group =>   3
Atom   8Cl   basis set group =>   4
-------------------------
ECP PARAMETER INFORMATION
-------------------------

 Group 1, Type I  ECP Def2-ECP (replacing 28 core electrons, lmax=3)

Atom   2I    ECP group =>   1

[1631208323.314620] [comp0807:108795:0]            sys.c:618  UCX  ERROR shmget(size=2097152 flags=0xfb0) for mm_recv_desc failed: Operation not permitted, please check shared memory limits by 'ipcs -l'
[1631208323.314782] [comp0807:108797:0]            sys.c:618  UCX  ERROR shmget(size=2097152 flags=0xfb0) for mm_recv_desc failed: Operation not permitted, please check shared memory limits by 'ipcs -l'
[1631208323.315050] [comp0807:108792:0]            sys.c:618  UCX  ERROR shmget(size=2097152 flags=0xfb0) for mm_recv_desc failed: Operation not permitted, please check shared memory limits by 'ipcs -l'
[1631208323.315307] [comp0807:108794:0]            sys.c:618  UCX  ERROR shmget(size=2097152 flags=0xfb0) for mm_recv_desc failed: Operation not permitted, please check shared memory limits by 'ipcs -l'
[1631208323.322660] [comp0807:108797:0]            sys.c:618  UCX  ERROR shmget(size=2097152 flags=0xb80) for ucp_am_bufs failed: Operation not permitted, please check shared memory limits by 'ipcs -l'
[1631208323.323169] [comp0807:108792:0]            sys.c:618  UCX  ERROR shmget(size=2097152 flags=0xb80) for ucp_am_bufs failed: Operation not permitted, please check shared memory limits by 'ipcs -l'
[1631208323.328011] [comp0807:108795:0]            sys.c:618  UCX  ERROR shmget(size=2097152 flags=0xb80) for ucp_am_bufs failed: Operation not permitted, please check shared memory limits by 'ipcs -l'
[1631208323.329342] [comp0807:108794:0]            sys.c:618  UCX  ERROR shmget(size=2097152 flags=0xb80) for ucp_am_bufs failed: Operation not permitted, please check shared memory limits by 'ipcs -l'


           ************************************************************
           *        Program running with 4 parallel MPI-processes     *
           *              working on a common directory               *
           ************************************************************
------------------------------------------------------------------------------
                           ORCA GTO INTEGRAL CALCULATION
                           -- RI-GTO INTEGRALS CHOSEN --
------------------------------------------------------------------------------

                         BASIS SET STATISTICS AND STARTUP INFO

Gaussian basis set:
 # of primitive gaussian shells          ...   90
 # of primitive gaussian functions       ...  180
 # of contracted shells                  ...   45
 # of contracted basis functions         ...   97
 Highest angular momentum                ...    2
 Maximum contraction depth               ...    6
Auxiliary gaussian basis set:
 # of primitive gaussian shells          ...  140
 # of primitive gaussian functions       ...  378
 # of contracted shells                  ...   90
 # of contracted aux-basis functions     ...  262
 Highest angular momentum                ...    4
 Maximum contraction depth               ...    7
Ratio of auxiliary to basis functions    ...  2.70
Integral package used                  ... LIBINT
 One Electron integrals                  
   ECP integrals                         ... done
 Ordering auxiliary basis shells         ... done
 Integral threshhold             Thresh  ...  2.500e-11
 Primitive cut-off               TCut    ...  2.500e-12
 Pre-screening matrix                    ... done
 Shell pair data                         ... 
 Ordering of the shell pairs             ... done (   0.000 sec) 965 of 1035 pairs
 Determination of significant pairs      ... done (   0.000 sec)
 Creation of shell pair data             ... done (   0.000 sec)
 Storage of shell pair data              ... done (   0.008 sec)
 Shell pair data done in (   0.008 sec)
 Computing two index integrals           ... done
 Cholesky decomposition of the V-matrix  ... done


Timings:
 Total evaluation time                   ...   0.228 sec (  0.004 min)
 One electron matrix time                ...   0.072 sec (  0.001 min) = 31.4%
 Schwartz matrix evaluation time         ...   0.112 sec (  0.002 min) = 49.2%
 Two index repulsion integral time       ...   0.001 sec (  0.000 min) =  0.6%
 Cholesky decomposition of V             ...   0.001 sec (  0.000 min) =  0.6%
 Three index repulsion integral time     ...   0.000 sec (  0.000 min) =  0.0%

[1631208324.507841] [comp0807:108854:0]            sys.c:618  UCX  ERROR shmget(size=2097152 flags=0xfb0) for mm_recv_desc failed: Operation not permitted, please check shared memory limits by 'ipcs -l'
[1631208324.518306] [comp0807:108855:0]            sys.c:618  UCX  ERROR shmget(size=2097152 flags=0xfb0) for mm_recv_desc failed: Operation not permitted, please check shared memory limits by 'ipcs -l'
[1631208324.526112] [comp0807:108853:0]            sys.c:618  UCX  ERROR shmget(size=2097152 flags=0xfb0) for mm_recv_desc failed: Operation not permitted, please check shared memory limits by 'ipcs -l'
[1631208324.527995] [comp0807:108856:0]            sys.c:618  UCX  ERROR shmget(size=2097152 flags=0xfb0) for mm_recv_desc failed: Operation not permitted, please check shared memory limits by 'ipcs -l'
[1631208324.537010] [comp0807:108856:0]            sys.c:618  UCX  ERROR shmget(size=2097152 flags=0xb80) for ucp_am_bufs failed: Operation not permitted, please check shared memory limits by 'ipcs -l'
[1631208324.537541] [comp0807:108853:0]            sys.c:618  UCX  ERROR shmget(size=2097152 flags=0xb80) for ucp_am_bufs failed: Operation not permitted, please check shared memory limits by 'ipcs -l'
[1631208324.538419] [comp0807:108855:0]            sys.c:618  UCX  ERROR shmget(size=2097152 flags=0xb80) for ucp_am_bufs failed: Operation not permitted, please check shared memory limits by 'ipcs -l'


           ************************************************************
           *        Program running with 4 parallel MPI-processes     *
           *              working on a common directory               *
           ************************************************************
[1631208324.542185] [comp0807:108854:0]            sys.c:618  UCX  ERROR shmget(size=2097152 flags=0xb80) for ucp_am_bufs failed: Operation not permitted, please check shared memory limits by 'ipcs -l'
-------------------------------------------------------------------------------
                                 ORCA SCF
-------------------------------------------------------------------------------

------------
SCF SETTINGS
------------
Hamiltonian:
 Density Functional     Method          .... DFT(GTOs)
 Exchange Functional    Exchange        .... PBE
   PBE kappa parameter   XKappa         ....  0.804000
   PBE mue parameter    XMuePBE         ....  0.219520
 Correlation Functional Correlation     .... PBE
   PBE beta parameter  CBetaPBE         ....  0.066725
 LDA part of GGA corr.  LDAOpt          .... PW91-LDA
 Gradients option       PostSCFGGA      .... off
 Hybrid DFT is turned on
   Fraction HF Exchange ScalHFX         ....  0.250000
   Scaling of DF-GGA-X  ScalDFX         ....  0.750000
   Scaling of DF-GGA-C  ScalDFC         ....  1.000000
   Scaling of DF-LDA-C  ScalLDAC        ....  1.000000
   Perturbative correction              ....  0.000000
   Density functional embedding theory  .... OFF
   NL short-range parameter             ....  6.900000
 RI-approximation to the Coulomb term is turned on
   Number of auxiliary basis functions  .... 262
   RIJ-COSX (HFX calculated with COS-X)).... on


General Settings:
 Integral files         IntName         .... manual_355
 Hartree-Fock type      HFTyp           .... RHF
 Total Charge           Charge          ....   -1
 Multiplicity           Mult            ....    1
 Number of Electrons    NEL             ....   60
 Basis Dimension        Dim             ....   97
 Nuclear Repulsion      ENuc            ....    193.1212141041 Eh

Convergence Acceleration:
 DIIS                   CNVDIIS         .... on
   Start iteration      DIISMaxIt       ....    12
   Startup error        DIISStart       ....  0.200000
   # of expansion vecs  DIISMaxEq       ....     5
   Bias factor          DIISBfac        ....   1.050
   Max. coefficient     DIISMaxC        ....  10.000
 Newton-Raphson         CNVNR           .... off
 SOSCF                  CNVSOSCF        .... on
   Start iteration      SOSCFMaxIt      ....   150
   Startup grad/error   SOSCFStart      ....  0.003300
 Level Shifting         CNVShift        .... on
   Level shift para.    LevelShift      ....    0.2500
   Turn off err/grad.   ShiftErr        ....    0.0010
 Zerner damping         CNVZerner       .... off
 Static damping         CNVDamp         .... on
   Fraction old density DampFac         ....    0.7000
   Max. Damping (<1)    DampMax         ....    0.9800
   Min. Damping (>=0)   DampMin         ....    0.0000
   Turn off err/grad.   DampErr         ....    0.1000
 Fernandez-Rico         CNVRico         .... off

SCF Procedure:
 Maximum # iterations   MaxIter         ....   250
 SCF integral mode      SCFMode         .... Direct
   Integral package                     .... LIBINT
 Reset frequency        DirectResetFreq ....    20
 Integral Threshold     Thresh          ....  2.500e-11 Eh
 Primitive CutOff       TCut            ....  2.500e-12 Eh

Convergence Tolerance:
 Convergence Check Mode ConvCheckMode   .... Total+1el-Energy
 Convergence forced     ConvForced      .... 0
 Energy Change          TolE            ....  1.000e-08 Eh
 1-El. energy change                    ....  1.000e-05 Eh
 Orbital Gradient       TolG            ....  1.000e-05
 Orbital Rotation angle TolX            ....  1.000e-05
 DIIS Error             TolErr          ....  5.000e-07


Diagonalization of the overlap matrix:
Smallest eigenvalue                        ... 3.914e-03
Time for diagonalization                   ...    0.004 sec
Threshold for overlap eigenvalues          ... 1.000e-08
Number of eigenvalues below threshold      ... 0
Time for construction of square roots      ...    0.001 sec
Total time needed                          ...    0.005 sec

-------------------
DFT GRID GENERATION
-------------------

General Integration Accuracy     IntAcc      ...  4.340
Radial Grid Type                 RadialGrid  ... Gauss-Chebyshev
Angular Grid (max. acc.)         AngularGrid ... Lebedev-110
Angular grid pruning method      GridPruning ... 3 (G Style)
Weight generation scheme         WeightScheme... Becke
Basis function cutoff            BFCut       ...    1.0000e-11
Integration weight cutoff        WCut        ...    1.0000e-14
Grids for H and He will be reduced by one unit

# of grid points (after initial pruning)     ...  12408 (   0.0 sec)
# of grid points (after weights+screening)   ...  11956 (   0.0 sec)
nearest neighbour list constructed           ...    0.0 sec
Grid point re-assignment to atoms done       ...    0.0 sec
Grid point division into batches done        ...    0.0 sec
Reduced shell lists constructed in    0.0 sec

Total number of grid points                  ...    11956
Total number of batches                      ...      191
Average number of points per batch           ...       62
Average number of grid points per atom       ...     1328
Average number of shells per batch           ...    32.33 (71.84%)
Average number of basis functions per batch  ...    69.14 (71.28%)
Average number of large shells per batch     ...    27.06 (83.71%)
Average number of large basis fcns per batch ...    56.98 (82.41%)
Maximum spatial batch extension              ...  19.70, 20.33, 21.48 au
Average spatial batch extension              ...   1.03,  1.07,  1.08 au

Time for grid setup =    0.075 sec

------------------------------
INITIAL GUESS: MODEL POTENTIAL
------------------------------
Loading Hartree-Fock densities                     ... done
  calling /usr/local/orca_4_2_1_linux_x86-64/orca manual_355_atom53.inp > manual_355_atom53.out in order to generate an atomic fitting density for atom 2 (I  with ECP) on-the-fly... 
    atom 2 (I ), assumed electronic state with S=2: 1s2 2s2 2p6 3s2 3p6 4s2 3d10 4p6 5s2 4d10 5p5           ... done
Calculating cut-offs                               ... done
Setting up the integral package                    ... done
Initializing the effective Hamiltonian             ... done
Starting the Coulomb interaction                   ... done (   0.0 sec)
Reading the grid                                   ... done
Mapping shells                                     ... done
Starting the XC term evaluation                    ... done (   0.0 sec)
  promolecular density results
     # of electrons  =     86.996302381
     EX              =   -212.096770281
     EC              =     -4.040016143
     EX+EC           =   -216.136786425
Transforming the Hamiltonian                       ... done (   0.0 sec)
Diagonalizing the Hamiltonian                      ... done (   0.0 sec)
Back transforming the eigenvectors                 ... done (   0.0 sec)
Now organizing SCF variables                       ... done
                      ------------------
                      INITIAL GUESS DONE (   5.3 sec)
                      ------------------
--------------------
COSX GRID GENERATION
--------------------

General Integration Accuracy     IntAcc      ...  3.340
Radial Grid Type                 RadialGrid  ... Gauss-Chebyshev
Angular Grid (max. acc.)         AngularGrid ... Lebedev-50
Angular grid pruning method      GridPruning ... 3 (G Style)
Weight generation scheme         WeightScheme... Becke
Basis function cutoff            BFCut       ...    1.0000e-11
Integration weight cutoff        WCut        ...    1.0000e-14
Grids for H and He will be reduced by one unit

# of grid points (after initial pruning)     ...   4696 (   0.0 sec)
# of grid points (after weights+screening)   ...   4519 (   0.0 sec)
nearest neighbour list constructed           ...    0.0 sec
Grid point re-assignment to atoms done       ...    0.0 sec
Grid point division into batches done        ...    0.0 sec
Reduced shell lists constructed in    0.0 sec

Total number of grid points                  ...     4519
Total number of batches                      ...       76
Average number of points per batch           ...       59
Average number of grid points per atom       ...      502
Average number of shells per batch           ...    33.40 (74.22%)
Average number of basis functions per batch  ...    71.40 (73.61%)
Average number of large shells per batch     ...    28.95 (86.68%)
Average number of large basis fcns per batch ...    61.25 (85.78%)
Maximum spatial batch extension              ...  16.80, 18.29, 15.81 au
Average spatial batch extension              ...   1.25,  1.22,  1.20 au

Overlap Fitting                  UseSFitting ... on
Constructing numerical overlap ... done (      0.0 sec)
Inverting numerical overlap    ... done (      0.0 sec)
Obtaining analytic overlap     ... done (      0.0 sec)
Final contraction and storage  ... done (      0.0 sec)


General Integration Accuracy     IntAcc      ...  3.670
Radial Grid Type                 RadialGrid  ... Gauss-Chebyshev
Angular Grid (max. acc.)         AngularGrid ... Lebedev-50
Angular grid pruning method      GridPruning ... 3 (G Style)
Weight generation scheme         WeightScheme... Becke
Basis function cutoff            BFCut       ...    1.0000e-11
Integration weight cutoff        WCut        ...    1.0000e-14
Grids for H and He will be reduced by one unit

# of grid points (after initial pruning)     ...   5832 (   0.0 sec)
# of grid points (after weights+screening)   ...   5595 (   0.0 sec)
nearest neighbour list constructed           ...    0.0 sec
Grid point re-assignment to atoms done       ...    0.0 sec
Grid point division into batches done        ...    0.0 sec
Reduced shell lists constructed in    0.0 sec

Total number of grid points                  ...     5595
Total number of batches                      ...       92
Average number of points per batch           ...       60
Average number of grid points per atom       ...      622
Average number of shells per batch           ...    32.62 (72.50%)
Average number of basis functions per batch  ...    69.38 (71.52%)
Average number of large shells per batch     ...    28.29 (86.72%)
Average number of large basis fcns per batch ...    60.04 (86.55%)
Maximum spatial batch extension              ...  22.09, 17.75, 16.59 au
Average spatial batch extension              ...   1.38,  1.37,  1.21 au

Overlap Fitting                  UseSFitting ... on
Constructing numerical overlap ... done (      0.0 sec)
Inverting numerical overlap    ... done (      0.0 sec)
Obtaining analytic overlap     ... done (      0.0 sec)
Final contraction and storage  ... done (      0.0 sec)


General Integration Accuracy     IntAcc      ...  4.010
Radial Grid Type                 RadialGrid  ... Gauss-Chebyshev
Angular Grid (max. acc.)         AngularGrid ... Lebedev-110
Angular grid pruning method      GridPruning ... 3 (G Style)
Weight generation scheme         WeightScheme... Becke
Basis function cutoff            BFCut       ...    1.0000e-11
Integration weight cutoff        WCut        ...    1.0000e-14
Grids for H and He will be reduced by one unit

# of grid points (after initial pruning)     ...  10882 (   0.0 sec)
# of grid points (after weights+screening)   ...  10502 (   0.0 sec)
nearest neighbour list constructed           ...    0.0 sec
Grid point re-assignment to atoms done       ...    0.0 sec
Grid point division into batches done        ...    0.0 sec
Reduced shell lists constructed in    0.0 sec

Total number of grid points                  ...    10502
Total number of batches                      ...      170
Average number of points per batch           ...       61
Average number of grid points per atom       ...     1167
Average number of shells per batch           ...    32.07 (71.26%)
Average number of basis functions per batch  ...    68.34 (70.45%)
Average number of large shells per batch     ...    27.09 (84.48%)
Average number of large basis fcns per batch ...    57.05 (83.47%)
Maximum spatial batch extension              ...  19.72, 18.63, 19.48 au
Average spatial batch extension              ...   1.03,  1.07,  1.03 au

Overlap Fitting                  UseSFitting ... on
Constructing numerical overlap ... done (      0.0 sec)
Inverting numerical overlap    ... done (      0.0 sec)
Obtaining analytic overlap     ... done (      0.0 sec)
Final contraction and storage  ... done (      0.0 sec)

Time for X-Grid setup             =    0.143 sec

--------------------
CPCM SOLVATION MODEL
--------------------
CPCM parameters:
  Epsilon                                         ...      20.7000
  Refrac                                          ...       1.3590
  Rsolv                                           ...       1.3000
  Surface type                                    ...    GEPOL SES
  Epsilon function type                           ...         CPCM
Radii:
 Radius for C  used is    3.7795 Bohr (=   2.0000 Ang.)
 Radius for I  used is    4.3842 Bohr (=   2.3200 Ang.)
 Radius for H  used is    2.4566 Bohr (=   1.3000 Ang.)
 Radius for Cl used is    3.8739 Bohr (=   2.0500 Ang.)
Calculating surface                               ...        done! (  0.0s)
GEPOL surface points                              ...          377
GEPOL Volume                                      ...     928.5738
GEPOL Surface-area                                ...     552.5550
Calculating surface distance matrix               ...        done! (  0.0s)
Performing Cholesky decomposition & store         ...        done! (  0.0s)
Overall time for CPCM initialization              ...                 0.0s
--------------
SCF ITERATIONS
--------------
ITER       Energy         Delta-E        Max-DP      RMS-DP      [F,P]     Damp
               ***  Starting incremental Fock matrix formation  ***
  0   -809.3531952982   0.000000000000 1.90429058  0.05322082  1.0329314 0.7000
  1   -819.1519562201  -9.798760921938 2.05191881  0.04726880  0.6687500 0.7000
  2   -824.0379094362  -4.885953216040 0.55381618  0.01917358  0.4381971 0.7000
  3   -827.8967877942  -3.858878358058 0.64878092  0.01579110  0.2816579 0.7000
  4   -830.5506633081  -2.653875513891 0.50875131  0.01223788  0.2130511 0.7000
                               ***Turning on DIIS***
  5   -832.4104664034  -1.859803095285 0.36741246  0.00924739  0.1667520 0.7000
  6   -833.7223576154  -1.311891212002 0.27957341  0.00714828  0.1303152 0.7000
  7   -834.6469358916  -0.924578276183 0.67033485  0.01702863  0.0891856 0.0000
  8   -836.8258756253  -2.178939733681 0.02201100  0.00071912  0.0064895 0.0000
                      *** Initiating the SOSCF procedure ***
                           *** Shutting down DIIS ***
                      *** Re-Reading the Fockian *** 
                      *** Removing any level shift *** 
ITER      Energy       Delta-E        Grad      Rot      Max-DP    RMS-DP
  9   -836.82625464  -0.0003790117  0.001552  0.001552  0.010477  0.000310
               *** Restarting incremental Fock matrix formation ***
 10   -836.82634321  -0.0000885763  0.000981  0.006330  0.005993  0.000246
 11   -836.82637256  -0.0000293466  0.000229  0.001433  0.002515  0.000077
 12   -836.82637353  -0.0000009733  0.000256  0.000587  0.000616  0.000022
 13   -836.82637421  -0.0000006726  0.000078  0.000116  0.000555  0.000014
 14   -836.82637422  -0.0000000151  0.000052  0.000047  0.000312  0.000007
 15   -836.82637428  -0.0000000625  0.000005  0.000025  0.000021  0.000001
 16   -836.82637428   0.0000000025  0.000003  0.000002  0.000015  0.000000
                  ***Gradient check signals convergence***
              ***Rediagonalizing the Fockian in SOSCF/NRSCF***

               *****************************************************
               *                     SUCCESS                       *
               *           SCF CONVERGED AFTER  17 CYCLES          *
               *****************************************************

Setting up the final grid:

General Integration Accuracy     IntAcc      ...  4.670
Radial Grid Type                 RadialGrid  ... Gauss-Chebyshev
Angular Grid (max. acc.)         AngularGrid ... Lebedev-302
Angular grid pruning method      GridPruning ... 3 (G Style)
Weight generation scheme         WeightScheme... Becke
Basis function cutoff            BFCut       ...    1.0000e-11
Integration weight cutoff        WCut        ...    1.0000e-14
Grids for H and He will be reduced by one unit

# of grid points (after initial pruning)     ...  46874 (   0.0 sec)
# of grid points (after weights+screening)   ...  44865 (   0.0 sec)
nearest neighbour list constructed           ...    0.0 sec
Grid point re-assignment to atoms done       ...    0.0 sec
Grid point division into batches done        ...    0.2 sec
Reduced shell lists constructed in    0.2 sec

Total number of grid points                  ...    44865
Total number of batches                      ...      705
Average number of points per batch           ...       63
Average number of grid points per atom       ...     4985
Average number of shells per batch           ...    30.38 (67.52%)
Average number of basis functions per batch  ...    64.55 (66.55%)
Average number of large shells per batch     ...    25.31 (83.32%)
Average number of large basis fcns per batch ...    52.90 (81.95%)
Maximum spatial batch extension              ...  21.97, 26.81, 23.55 au
Average spatial batch extension              ...   0.72,  0.77,  0.76 au

Final grid set up in    0.3 sec
Final integration                            ... done (   0.1 sec)
Change in XC energy                          ...    -0.000296491
Integrated number of electrons               ...    59.999957983
Previous integrated no of electrons          ...    60.000190545
Old exchange energy                            =    -15.247157786 Eh
New exchange energy                            =    -15.246609287 Eh
Exchange energy change after final integration =      0.000548499 Eh
Total energy after final integration           =   -836.826122275 Eh
Final COS-X integration done in                =     0.341 sec

----------------
TOTAL SCF ENERGY
----------------

Total Energy       :         -836.82612228 Eh          -22771.19645 eV

Components:
Nuclear Repulsion  :          193.12121410 Eh            5255.09540 eV
Electronic Energy  :        -1029.94733638 Eh          -28026.29185 eV
One Electron Energy:        -1655.29378875 Eh          -45042.83393 eV
Two Electron Energy:          625.34645237 Eh           17016.54207 eV
CPCM Dielectric    :           -0.08846417 Eh              -2.40723 eV

Virial components:
Potential Energy   :        -1487.48608145 Eh          -40476.55406 eV
Kinetic Energy     :          650.65995918 Eh           17705.35761 eV
Virial Ratio       :            2.28611898


DFT components:
N(Alpha)           :       29.999978991391 electrons
N(Beta)            :       29.999978991391 electrons
N(Total)           :       59.999957982781 electrons
E(X)               :      -45.485427060389 Eh       
E(C)               :       -2.368970253706 Eh       
E(XC)              :      -47.854397314095 Eh       
DFET-embed. en.    :        0.000000000000 Eh       
CPCM Solvation Model Properties:
Surface-charge          :            0.97055537
Charge-correction       :           -0.00380830 Eh              -0.10363 eV
Free-energy (cav+disp)  :            0.00377300 Eh               0.10267 eV
Corrected G(solv)       :         -836.82615758 Eh          -22771.19741 eV

---------------
SCF CONVERGENCE
---------------

  Last Energy change         ...   -1.5184e-09  Tolerance :   1.0000e-08
  Last MAX-Density change    ...    2.2204e-15  Tolerance :   1.0000e-07
  Last RMS-Density change    ...    7.7439e-17  Tolerance :   5.0000e-09
  Last Orbital Gradient      ...    6.7588e-07  Tolerance :   1.0000e-05
  Last Orbital Rotation      ...    3.6954e-06  Tolerance :   1.0000e-05

             **** THE GBW FILE WAS UPDATED (manual_355.gbw) ****
             **** DENSITY FILE WAS UPDATED (manual_355.scfp) ****
             **** ENERGY FILE WAS UPDATED (manual_355.en.tmp) ****
             **** THE GBW FILE WAS UPDATED (manual_355.gbw) ****
             **** DENSITY FILE WAS UPDATED (manual_355.scfp) ****
----------------
ORBITAL ENERGIES
----------------

  NO   OCC          E(Eh)            E(eV) 
   0   2.0000    -101.608856     -2764.9175 
   1   2.0000     -10.314885      -280.6823 
   2   2.0000     -10.234373      -278.4914 
   3   2.0000      -9.455734      -257.3036 
   4   2.0000      -7.195481      -195.7990 
   5   2.0000      -7.189140      -195.6265 
   6   2.0000      -7.188979      -195.6221 
   7   2.0000      -6.810772      -185.3305 
   8   2.0000      -4.819264      -131.1388 
   9   2.0000      -4.817755      -131.0978 
  10   2.0000      -4.817746      -131.0975 
  11   2.0000      -1.846238       -50.2387 
  12   2.0000      -1.845882       -50.2290 
  13   2.0000      -1.845846       -50.2280 
  14   2.0000      -1.844652       -50.1955 
  15   2.0000      -1.844649       -50.1955 
  16   2.0000      -0.795589       -21.6491 
  17   2.0000      -0.740101       -20.1392 
  18   2.0000      -0.627655       -17.0794 
  19   2.0000      -0.613346       -16.6900 
  20   2.0000      -0.481086       -13.0910 
  21   2.0000      -0.433760       -11.8032 
  22   2.0000      -0.421051       -11.4574 
  23   2.0000      -0.376151       -10.2356 
  24   2.0000      -0.300466        -8.1761 
  25   2.0000      -0.272193        -7.4067 
  26   2.0000      -0.271401        -7.3852 
  27   2.0000      -0.221321        -6.0224 
  28   2.0000      -0.220906        -6.0112 
  29   2.0000      -0.219999        -5.9865 
  30   0.0000      -0.065934        -1.7941 
  31   0.0000       0.092757         2.5240 
  32   0.0000       0.119511         3.2521 
  33   0.0000       0.123617         3.3638 
  34   0.0000       0.172591         4.6964 
  35   0.0000       0.198908         5.4126 
  36   0.0000       0.248231         6.7547 
  37   0.0000       0.306255         8.3336 
  38   0.0000       0.407847        11.0981 
  39   0.0000       0.413744        11.2586 
  40   0.0000       0.430064        11.7026 
  41   0.0000       0.433746        11.8028 
  42   0.0000       0.461271        12.5518 
  43   0.0000       0.463527        12.6132 
  44   0.0000       0.485698        13.2165 
  45   0.0000       0.498530        13.5657 
  46   0.0000       0.498646        13.5689 
  47   0.0000       0.508432        13.8351 
  48   0.0000       0.524334        14.2678 
  49   0.0000       0.582110        15.8400 
  50   0.0000       0.633479        17.2378 
  51   0.0000       0.643840        17.5198 
  52   0.0000       0.653441        17.7810 
  53   0.0000       0.675891        18.3919 
  54   0.0000       0.686624        18.6840 
  55   0.0000       0.695576        18.9276 
  56   0.0000       0.701727        19.0950 
  57   0.0000       0.718164        19.5422 
  58   0.0000       0.815606        22.1938 
  59   0.0000       0.847035        23.0490 
  60   0.0000       0.859422        23.3861 
  61   0.0000       0.870431        23.6856 
  62   0.0000       0.873439        23.7675 
  63   0.0000       0.878244        23.8982 
  64   0.0000       0.945243        25.7214 
  65   0.0000       0.967895        26.3378 
  66   0.0000       0.990661        26.9573 
  67   0.0000       1.158520        31.5249 
  68   0.0000       1.203783        32.7566 
  69   0.0000       1.298796        35.3420 
  70   0.0000       1.329668        36.1821 
  71   0.0000       1.541374        41.9429 
  72   0.0000       1.578621        42.9565 
  73   0.0000       1.662450        45.2376 
  74   0.0000       1.692196        46.0470 
  75   0.0000       1.757389        47.8210 
  76   0.0000       1.789064        48.6829 
  77   0.0000       1.793647        48.8076 
  78   0.0000       1.824062        49.6352 
  79   0.0000       1.935366        52.6640 
  80   0.0000       2.079957        56.5985 
  81   0.0000       2.133491        58.0552 
  82   0.0000       2.149483        58.4904 
  83   0.0000       2.173047        59.1316 
  84   0.0000       2.265955        61.6598 
  85   0.0000       2.508776        68.2673 
  86   0.0000       2.518005        68.5184 
  87   0.0000       2.585236        70.3478 
  88   0.0000       2.754309        74.9486 
  89   0.0000       2.866832        78.0105 
  90   0.0000       2.869607        78.0860 
  91   0.0000       2.984512        81.2127 
  92   0.0000       3.074643        83.6653 
  93   0.0000      18.666777       507.9488 
  94   0.0000      18.674731       508.1653 
  95   0.0000      18.782648       511.1018 
  96   0.0000      55.898037      1521.0629 

                    ********************************
                    * MULLIKEN POPULATION ANALYSIS *
                    ********************************

-----------------------
MULLIKEN ATOMIC CHARGES
-----------------------
   0 C :   -0.083503
   1 C :   -0.031470
   2 I :   -0.901938
   3 H :    0.087017
   4 H :    0.084146
   5 H :    0.080854
   6 H :    0.128116
   7 H :    0.128981
   8 Cl:   -0.492204
Sum of atomic charges:   -1.0000000

--------------------------------
MULLIKEN REDUCED ORBITAL CHARGES
--------------------------------
  0 C s       :     3.039539  s :     3.039539
      pz      :     1.051693  p :     3.018369
      px      :     0.980224
      py      :     0.986452
      dz2     :     0.005375  d :     0.025595
      dxz     :     0.002144
      dyz     :     0.007259
      dx2y2   :     0.002960
      dxy     :     0.007856
  1 C s       :     3.271704  s :     3.271704
      pz      :     1.072702  p :     2.732456
      px      :     0.928078
      py      :     0.731676
      dz2     :     0.004863  d :     0.027310
      dxz     :     0.008225
      dyz     :     0.003553
      dx2y2   :     0.005243
      dxy     :     0.005426
  2 I s       :     3.998473  s :     3.998473
      pz      :     3.993076  p :    11.902536
      px      :     3.952551
      py      :     3.956908
      dz2     :     2.000141  d :    10.000930
      dxz     :     2.000076
      dyz     :     2.000101
      dx2y2   :     2.000128
      dxy     :     2.000483
  3 H s       :     0.887080  s :     0.887080
      pz      :     0.005546  p :     0.025903
      px      :     0.012343
      py      :     0.008014
  4 H s       :     0.891284  s :     0.891284
      pz      :     0.010536  p :     0.024570
      px      :     0.004581
      py      :     0.009454
  5 H s       :     0.894625  s :     0.894625
      pz      :     0.012856  p :     0.024521
      px      :     0.004530
      py      :     0.007134
  6 H s       :     0.847620  s :     0.847620
      pz      :     0.013529  p :     0.024264
      px      :     0.005998
      py      :     0.004737
  7 H s       :     0.846714  s :     0.846714
      pz      :     0.012455  p :     0.024305
      px      :     0.008087
      py      :     0.003764
  8 Cls       :     5.982262  s :     5.982262
      pz      :     3.985089  p :    11.506104
      px      :     3.889652
      py      :     3.631363
      dz2     :     0.000653  d :     0.003838
      dxz     :     0.000167
      dyz     :     0.000482
      dx2y2   :     0.001033
      dxy     :     0.001503


                     *******************************
                     * LOEWDIN POPULATION ANALYSIS *
                     *******************************

----------------------
LOEWDIN ATOMIC CHARGES
----------------------
   0 C :   -0.089258
   1 C :    0.120357
   2 I :   -0.870733
   3 H :    0.058718
   4 H :    0.052147
   5 H :    0.051655
   6 H :    0.043676
   7 H :    0.043834
   8 Cl:   -0.410397

-------------------------------
LOEWDIN REDUCED ORBITAL CHARGES
-------------------------------
  0 C s       :     2.842790  s :     2.842790
      pz      :     1.080836  p :     3.177622
      px      :     1.043623
      py      :     1.053162
      dz2     :     0.014697  d :     0.068846
      dxz     :     0.004181
      dyz     :     0.019879
      dx2y2   :     0.007338
      dxy     :     0.022752
  1 C s       :     2.971240  s :     2.971240
      pz      :     1.103814  p :     2.847296
      px      :     0.959165
      py      :     0.784317
      dz2     :     0.012557  d :     0.061107
      dxz     :     0.019760
      dyz     :     0.007152
      dx2y2   :     0.009540
      dxy     :     0.012096
  2 I s       :     3.993716  s :     3.993716
      pz      :     3.992011  p :    11.876358
      px      :     3.939280
      py      :     3.945068
      dz2     :     2.000095  d :    10.000658
      dxz     :     2.000044
      dyz     :     2.000078
      dx2y2   :     2.000100
      dxy     :     2.000342
  3 H s       :     0.871854  s :     0.871854
      pz      :     0.013813  p :     0.069428
      px      :     0.034816
      py      :     0.020800
  4 H s       :     0.880529  s :     0.880529
      pz      :     0.029159  p :     0.067323
      px      :     0.012490
      py      :     0.025674
  5 H s       :     0.881210  s :     0.881210
      pz      :     0.035587  p :     0.067135
      px      :     0.012383
      py      :     0.019165
  6 H s       :     0.881972  s :     0.881972
      pz      :     0.041824  p :     0.074353
      px      :     0.018859
      py      :     0.013669
  7 H s       :     0.881794  s :     0.881794
      pz      :     0.038009  p :     0.074372
      px      :     0.025389
      py      :     0.010974
  8 Cls       :     5.944070  s :     5.944070
      pz      :     3.978502  p :    11.462983
      px      :     3.878918
      py      :     3.605563
      dz2     :     0.000556  d :     0.003344
      dxz     :     0.000141
      dyz     :     0.000380
      dx2y2   :     0.000908
      dxy     :     0.001360


                      *****************************
                      * MAYER POPULATION ANALYSIS *
                      *****************************

  NA   - Mulliken gross atomic population
  ZA   - Total nuclear charge
  QA   - Mulliken gross atomic charge
  VA   - Mayer's total valence
  BVA  - Mayer's bonded valence
  FA   - Mayer's free valence

  ATOM       NA         ZA         QA         VA         BVA        FA
  0 C      6.0835     6.0000    -0.0835     3.9346     3.9346    -0.0000
  1 C      6.0315     6.0000    -0.0315     3.8248     3.8248    -0.0000
  2 I     25.9019    25.0000    -0.9019     0.1948     0.1948     0.0000
  3 H      0.9130     1.0000     0.0870     1.0196     1.0196     0.0000
  4 H      0.9159     1.0000     0.0841     0.9884     0.9884    -0.0000
  5 H      0.9191     1.0000     0.0809     0.9891     0.9891    -0.0000
  6 H      0.8719     1.0000     0.1281     0.9851     0.9851     0.0000
  7 H      0.8710     1.0000     0.1290     0.9842     0.9842    -0.0000
  8 Cl    17.4922    17.0000    -0.4922     0.7897     0.7897     0.0000

  Mayer bond orders larger than 0.100000
B(  0-C ,  1-C ) :   1.0958 B(  0-C ,  3-H ) :   0.9341 B(  0-C ,  4-H ) :   0.9608 
B(  0-C ,  5-H ) :   0.9612 B(  1-C ,  2-I ) :   0.1036 B(  1-C ,  6-H ) :   0.9556 
B(  1-C ,  7-H ) :   0.9560 B(  1-C ,  8-Cl) :   0.6769 


------------------
HIRSHFELD ANALYSIS
------------------

Total integrated alpha density =     30.000095273
Total integrated beta density  =     30.000095273

  ATOM     CHARGE      SPIN    
   0 C   -0.065076    0.000000
   1 C    0.102337    0.000000
   2 I   -0.837487    0.000000
   3 H    0.049749    0.000000
   4 H    0.045901    0.000000
   5 H    0.045693    0.000000
   6 H    0.053817    0.000000
   7 H    0.053627    0.000000
   8 Cl  -0.448753    0.000000

  TOTAL  -1.000191    0.000000

-------
TIMINGS
-------

Total SCF time: 0 days 0 hours 0 min 14 sec 

Total time                  ....      14.517 sec
Sum of individual times     ....      14.295 sec  ( 98.5%)

Fock matrix formation       ....       8.550 sec  ( 58.9%)
  Split-RI-J                ....       1.729 sec  ( 20.2% of F)
  Chain of spheres X        ....       3.296 sec  ( 38.5% of F)
  COS-X 1 center corr.      ....       0.000 sec  (  0.0% of F)
  XC integration            ....       0.479 sec  (  5.6% of F)
    Basis function eval.    ....       0.171 sec  ( 35.8% of XC)
    Density eval.           ....       0.066 sec  ( 13.7% of XC)
    XC-Functional eval.     ....       0.051 sec  ( 10.6% of XC)
    XC-Potential eval.      ....       0.092 sec  ( 19.2% of XC)
Diagonalization             ....       0.011 sec  (  0.1%)
Density matrix formation    ....       0.002 sec  (  0.0%)
Population analysis         ....       0.022 sec  (  0.1%)
Initial guess               ....       5.230 sec  ( 36.0%)
Orbital Transformation      ....       0.000 sec  (  0.0%)
Orbital Orthonormalization  ....       0.000 sec  (  0.0%)
DIIS solution               ....       0.003 sec  (  0.0%)
SOSCF solution              ....       0.005 sec  (  0.0%)
Grid generation             ....       0.472 sec  (  3.3%)


-------------------------------------------------------------------------------
                          DFT DISPERSION CORRECTION                            
                                                                               
                              DFTD3 V3.1  Rev 1                                
                          USING Becke-Johnson damping                          
-------------------------------------------------------------------------------
The PBE0 functional is recognized
Active option DFTDOPT                   ...         4   

molecular C6(AA) [au] = 2123.031422 


            DFT-D V3
 parameters
 s6 scaling factor         :     1.0000 
 a1 scaling factor         :     0.4145 
 s8 scaling factor         :     1.2177 
 a2 scaling factor         :     4.8593 
 ad hoc parameters k1-k3   :    16.0000     1.3333    -4.0000 

 Edisp/kcal,au: -3.963951936447  -0.006316958831 
 E6   /kcal   :  -2.335873558 
 E8   /kcal   :  -1.628078379 
 % E8         :  41.072101898 

-------------------------   ----------------
Dispersion correction           -0.006316959
-------------------------   ----------------


-------------------------   --------------------
FINAL SINGLE POINT ENERGY      -836.832439233907
-------------------------   --------------------

[1631208340.523101] [comp0807:108935:0]            sys.c:618  UCX  ERROR shmget(size=2097152 flags=0xfb0) for mm_recv_desc failed: Operation not permitted, please check shared memory limits by 'ipcs -l'
[1631208340.524017] [comp0807:108933:0]            sys.c:618  UCX  ERROR shmget(size=2097152 flags=0xfb0) for mm_recv_desc failed: Operation not permitted, please check shared memory limits by 'ipcs -l'
[1631208340.557460] [comp0807:108936:0]            sys.c:618  UCX  ERROR shmget(size=2097152 flags=0xfb0) for mm_recv_desc failed: Operation not permitted, please check shared memory limits by 'ipcs -l'
[1631208340.557603] [comp0807:108934:0]            sys.c:618  UCX  ERROR shmget(size=2097152 flags=0xfb0) for mm_recv_desc failed: Operation not permitted, please check shared memory limits by 'ipcs -l'
[1631208340.564395] [comp0807:108933:0]            sys.c:618  UCX  ERROR shmget(size=2097152 flags=0xb80) for ucp_am_bufs failed: Operation not permitted, please check shared memory limits by 'ipcs -l'
[1631208340.564416] [comp0807:108935:0]            sys.c:618  UCX  ERROR shmget(size=2097152 flags=0xb80) for ucp_am_bufs failed: Operation not permitted, please check shared memory limits by 'ipcs -l'


           ************************************************************
           *        Program running with 4 parallel MPI-processes     *
           *              working on a common directory               *
           ************************************************************
[1631208340.567914] [comp0807:108934:0]            sys.c:618  UCX  ERROR shmget(size=2097152 flags=0xb80) for ucp_am_bufs failed: Operation not permitted, please check shared memory limits by 'ipcs -l'
------------------------------------------------------------------------------
                         ORCA SCF GRADIENT CALCULATION
------------------------------------------------------------------------------

Gradient of the Kohn-Sham DFT energy:
Kohn-Sham wavefunction type      ... RKS
Hartree-Fock exchange scaling    ...    0.250
Number of operators              ...    1
Number of atoms                  ...    9
Basis set dimensions             ...   97
Integral neglect threshold       ... 2.5e-11
Integral primitive cutoff        ... 2.5e-12

[1631208340.959065] [comp0807:108936:0]            sys.c:618  UCX  ERROR shmget(size=2097152 flags=0xb80) for ucp_am_bufs failed: Operation not permitted, please check shared memory limits by 'ipcs -l'
Nuclear repulsion gradient       ... done
One Electron Gradient            
  ECP gradient                   ... done
Pre-screening matrix             ... done
RI-J gradient                    ... done
COSX-gradient                    ... done
Exchange-correlation gradient    ... done
Dispersion correction            ... done

------------------
CARTESIAN GRADIENT
------------------

WARNING: THERE ARE 6 CONSTRAINED CARTESIAN COORDINATES
   1   C   :   -0.000503525   -0.000061995   -0.000235123
   2   C   :    0.012483921    0.028045596   -0.004473144
   3   I   :    0.001800356    0.001490251   -0.000397478
   4   H   :   -0.000228719   -0.000101534   -0.000254884
   5   H   :   -0.000156626   -0.000264065    0.000097619
   6   H   :   -0.000194303   -0.000263763   -0.000422797
   7   H   :   -0.000295005   -0.000416788   -0.000054915
   8   H   :   -0.000360697   -0.000495750   -0.000277845
   9   Cl  :   -0.014458575   -0.029310597    0.004268892

Difference to translation invariance:
           :   -0.0019131735   -0.0013786454   -0.0017496748

Norm of the cartesian gradient     ...    0.0453427478
RMS gradient                       ...    0.0087262159
MAX gradient                       ...    0.0293105972

-------
TIMINGS
-------

Total SCF gradient time            ...        1.409 sec

One electron gradient       ....       0.092 sec  (  6.5%)
Prescreening matrices       ....       0.132 sec  (  9.4%)
RI-J Coulomb gradient       ....       0.113 sec  (  8.0%)
COSX gradient               ....       0.338 sec  ( 24.0%)
XC gradient                 ....       0.266 sec  ( 18.9%)
CPCM gradient               ....       0.145 sec  ( 10.3%)
   A-Matrix (El+Nuc)        ....       0.004 sec  (  0.3%)
   Potential                ....       0.141 sec  ( 10.0%)
[1631208344.109999] [comp0807:108966:0]            sys.c:618  UCX  ERROR shmget(size=2097152 flags=0xfb0) for mm_recv_desc failed: Operation not permitted, please check shared memory limits by 'ipcs -l'
[1631208344.116395] [comp0807:108968:0]            sys.c:618  UCX  ERROR shmget(size=2097152 flags=0xfb0) for mm_recv_desc failed: Operation not permitted, please check shared memory limits by 'ipcs -l'
[1631208344.132645] [comp0807:108969:0]            sys.c:618  UCX  ERROR shmget(size=2097152 flags=0xfb0) for mm_recv_desc failed: Operation not permitted, please check shared memory limits by 'ipcs -l'
[1631208344.133393] [comp0807:108967:0]            sys.c:618  UCX  ERROR shmget(size=2097152 flags=0xfb0) for mm_recv_desc failed: Operation not permitted, please check shared memory limits by 'ipcs -l'
[1631208344.141477] [comp0807:108966:0]            sys.c:618  UCX  ERROR shmget(size=2097152 flags=0xb80) for ucp_am_bufs failed: Operation not permitted, please check shared memory limits by 'ipcs -l'
[1631208344.142292] [comp0807:108969:0]            sys.c:618  UCX  ERROR shmget(size=2097152 flags=0xb80) for ucp_am_bufs failed: Operation not permitted, please check shared memory limits by 'ipcs -l'
[1631208344.142288] [comp0807:108968:0]            sys.c:618  UCX  ERROR shmget(size=2097152 flags=0xb80) for ucp_am_bufs failed: Operation not permitted, please check shared memory limits by 'ipcs -l'


           ************************************************************
           *        Program running with 4 parallel MPI-processes     *
           *              working on a common directory               *
           ************************************************************
[1631208344.161246] [comp0807:108967:0]            sys.c:618  UCX  ERROR shmget(size=2097152 flags=0xb80) for ucp_am_bufs failed: Operation not permitted, please check shared memory limits by 'ipcs -l'

-------------------------------------------------------------------------------
                               ORCA SCF HESSIAN
-------------------------------------------------------------------------------

Hessian of the Kohn-Sham DFT energy:
Kohn-Sham wavefunction type                      ... RKS
Hartree-Fock exchange scaling                    ...    0.250
Number of operators                              ...    1
Number of atoms                                  ...    9
Basis set dimensions                             ...   97
Integral neglect threshold                       ... 2.5e-11
Integral primitive cutoff                        ... 2.5e-12

Setting up DFT Hessian calculations              ... 
Electron density on the grid                     ... found on disk
Electron density on the final grid               ... found on disk
Building xc-kernel on the grid                   ... done   (      0.0 sec)
Building xc-kernel on the final grid             ... done   (      0.0 sec)
                                                     done   (      0.1 sec)

Nuclear repulsion Hessian                        ... done   (      0.0 sec)
[1631208344.262912] [comp0807:108967:0]            sys.c:618  UCX  ERROR shmget(size=6291456 flags=0xfb0) for mm_recv_desc failed: Operation not permitted, please check shared memory limits by 'ipcs -l'

----------------------------------------------
Forming right-hand sides of CP-SCF equations     ...
----------------------------------------------
One electron integral derivatives                ... done   (      2.0 sec)
Transforming the overlap derivative matrices     ... done   (      0.0 sec)
Adding tr(S(x)F(y) C-PCM term to the hessian     ... done   (      0.3 sec)
Making the Q(x) pseudodensities                  ... done   (      0.0 sec)
Adding the E*S(x)*S(y) terms to the Hessian      ... done   (      0.0 sec)
Calculating energy weighted overlap derivatives  ... done   (      0.0 sec)
F(y): ECP integral derivatives                   ... done   (      0.5 sec)
Two electron integral derivatives (RI)           ... done   (      1.1 sec)
Exchange-correlation integral derivatives        ... done   (      1.9 sec)
tr(F(y)Q(x)) contribution to the Hessian         ... done   (      0.0 sec)
Response fock operator R(S(x)) (RIJCOSX)         ... done   (      1.1 sec)
XC Response fock operator R(S(x))                ... done   (      0.6 sec)
tr(F(y)S(x)) contribution to the Hessian         ... done   (      0.0 sec)
Transforming and finalizing RHSs                 ... done   (      0.0 sec)

----------------------------------------------
Solving the CP-SCF equations (RIJCOSX)           ...
----------------------------------------------
     CP-SCF ITERATION   0: 
     CP-SCF ITERATION   1:      0.001412543766
     CP-SCF ITERATION   2:      0.000146237538
     CP-SCF ITERATION   3:      0.000012531101
     CP-SCF ITERATION   4:      0.000000461046
     CP-SCF ITERATION   5:      0.000000032184
     CP-SCF ITERATION   6:      0.000000009571

                                                 ... done   (      7.0 sec)
Forming perturbed density Hessian contributions  ... done   (      0.0 sec)
Calculating [Q*(d^2 A/dXdY)*Q  ] C-PCM term      ... done   (      0.0 sec)
Calculating [d^2(V_N)/(dXdY)*Q ] C-PCM term      ... done   (      0.0 sec)
Calculating [d^2(V_el)/(dXdY)*Q] C-PCM term      ... done   (      0.2 sec)
Calculating C-PCM term that depends on dQ/dX     ... done   (      0.0 sec)
2nd integral derivative contribs (RI)            ... done   (      4.7 sec)
Exchange-correlation Hessian                     ... done   (      2.4 sec)
ECP integral 2nd derivatives                     ... done   (      1.1 sec)
Dispersion correction in the Hessian             ... done   (      0.5 sec)
Dipol derivatives                                ... done   (      0.1 sec)

Total SCF Hessian time: 0 days 0 hours 0 min 24 sec 

Writing the Hessian file to the disk             ... done


Maximum memory used throughout the entire calculation: 135.7 MB

-----------------------
VIBRATIONAL FREQUENCIES
-----------------------

Scaling factor for frequencies =  1.000000000  (already applied!)

   0:         0.00 cm**-1
   1:         0.00 cm**-1
   2:         0.00 cm**-1
   3:         0.00 cm**-1
   4:         0.00 cm**-1
   5:         0.00 cm**-1
   6:      -248.19 cm**-1 ***imaginary mode***
   7:      -201.48 cm**-1 ***imaginary mode***
   8:        64.50 cm**-1
   9:       114.56 cm**-1
  10:       143.02 cm**-1
  11:       278.46 cm**-1
  12:       660.44 cm**-1
  13:       873.75 cm**-1
  14:       878.83 cm**-1
  15:      1039.71 cm**-1
  16:      1076.62 cm**-1
  17:      1155.71 cm**-1
  18:      1335.11 cm**-1
  19:      1416.14 cm**-1
  20:      1423.05 cm**-1
  21:      1453.32 cm**-1
  22:      3069.80 cm**-1
  23:      3161.20 cm**-1
  24:      3186.30 cm**-1
  25:      3213.77 cm**-1
  26:      3334.37 cm**-1


------------
NORMAL MODES
------------

These modes are the Cartesian displacements weighted by the diagonal matrix
M(i,i)=1/sqrt(m[i]) where m[i] is the mass of the displaced atom
Thus, these vectors are normalized but *not* orthogonal

                  0          1          2          3          4          5    
      0       0.000000   0.000000   0.000000   0.000000   0.000000   0.000000
      1       0.000000   0.000000   0.000000   0.000000   0.000000   0.000000
      2       0.000000   0.000000   0.000000   0.000000   0.000000   0.000000
      3       0.000000   0.000000   0.000000   0.000000   0.000000   0.000000
      4       0.000000   0.000000   0.000000   0.000000   0.000000   0.000000
      5       0.000000   0.000000   0.000000   0.000000   0.000000   0.000000
      6       0.000000   0.000000   0.000000   0.000000   0.000000   0.000000
      7       0.000000   0.000000   0.000000   0.000000   0.000000   0.000000
      8       0.000000   0.000000   0.000000   0.000000   0.000000   0.000000
      9       0.000000   0.000000   0.000000   0.000000   0.000000   0.000000
     10       0.000000   0.000000   0.000000   0.000000   0.000000   0.000000
     11       0.000000   0.000000   0.000000   0.000000   0.000000   0.000000
     12       0.000000   0.000000   0.000000   0.000000   0.000000   0.000000
     13       0.000000   0.000000   0.000000   0.000000   0.000000   0.000000
     14       0.000000   0.000000   0.000000   0.000000   0.000000   0.000000
     15       0.000000   0.000000   0.000000   0.000000   0.000000   0.000000
     16       0.000000   0.000000   0.000000   0.000000   0.000000   0.000000
     17       0.000000   0.000000   0.000000   0.000000   0.000000   0.000000
     18       0.000000   0.000000   0.000000   0.000000   0.000000   0.000000
     19       0.000000   0.000000   0.000000   0.000000   0.000000   0.000000
     20       0.000000   0.000000   0.000000   0.000000   0.000000   0.000000
     21       0.000000   0.000000   0.000000   0.000000   0.000000   0.000000
     22       0.000000   0.000000   0.000000   0.000000   0.000000   0.000000
     23       0.000000   0.000000   0.000000   0.000000   0.000000   0.000000
     24       0.000000   0.000000   0.000000   0.000000   0.000000   0.000000
     25       0.000000   0.000000   0.000000   0.000000   0.000000   0.000000
     26       0.000000   0.000000   0.000000   0.000000   0.000000   0.000000
                  6          7          8          9         10         11    
      0       0.093666  -0.000165  -0.181178  -0.365566   0.003772   0.074165
      1       0.218355   0.000213  -0.211933   0.006045  -0.001942   0.284293
      2      -0.032636   0.014812   0.040846   0.035584  -0.017318  -0.038141
      3       0.341565  -0.005814  -0.196060  -0.207022   0.033367  -0.206506
      4       0.593542  -0.006709  -0.200523   0.191287   0.032227  -0.055522
      5      -0.099421  -0.039649   0.045332   0.007192   0.314991   0.025965
      6      -0.023259   0.000228   0.143505   0.034525  -0.002141  -0.003532
      7      -0.018907   0.000056   0.156788  -0.018128  -0.001646  -0.002959
      8       0.004374  -0.000513  -0.031621  -0.001811  -0.015194   0.000649
      9       0.309385  -0.059383  -0.174757  -0.270501  -0.024815  -0.130498
     10      -0.171871  -0.067452  -0.226646  -0.157436  -0.029579   0.625506
     11      -0.034552  -0.586443   0.043917   0.045104  -0.289972  -0.059245
     12      -0.168130  -0.296526  -0.193914  -0.482636  -0.260413   0.301364
     13       0.190837  -0.325569  -0.218899   0.010936   0.003464   0.274851
     14       0.024454   0.339995   0.049430   0.047671   0.012820  -0.059503
     15      -0.141600   0.345209  -0.195275  -0.477934   0.272249   0.301197
     16       0.213257   0.383306  -0.225758   0.002599  -0.005976   0.281266
     17      -0.017025   0.194306   0.034206   0.041475  -0.038919  -0.056710
     18       0.123122  -0.097851  -0.222939  -0.176189   0.344585  -0.202729
     19       0.226551  -0.022190  -0.264448   0.262344   0.057884  -0.082003
     20      -0.078807  -0.079550   0.050514  -0.000396   0.459831   0.037623
     21       0.137902   0.078531  -0.229787  -0.191668  -0.245132  -0.204911
     22       0.235968   0.001064  -0.262672   0.261174   0.043024  -0.084355
     23      -0.004020  -0.099560   0.065013   0.004399   0.518656   0.020285
     24      -0.071608   0.002064  -0.356950   0.115866  -0.007378   0.055647
     25      -0.227137   0.002879  -0.387395  -0.012761  -0.006324  -0.095778
     26       0.032209   0.016824   0.077077  -0.011939  -0.065295   0.005143
                 12         13         14         15         16         17    
      0      -0.001274  -0.003103   0.064664  -0.086689   0.181247   0.015671
      1      -0.001884  -0.004513   0.060975  -0.067710  -0.185566   0.016712
      2      -0.015270  -0.032147  -0.013768   0.015757   0.003370   0.155704
      3      -0.007733  -0.002319  -0.038350   0.079071  -0.209237  -0.012337
      4      -0.008422  -0.002493   0.005970   0.081030   0.191212  -0.014693
      5      -0.080245  -0.022061   0.002921  -0.016496  -0.000539  -0.131398
      6      -0.000021  -0.000015   0.000501   0.000729  -0.000023   0.000010
      7      -0.000011  -0.000006   0.000581   0.000657  -0.000264   0.000016
      8      -0.000105   0.000104  -0.000109  -0.000145   0.000029   0.000098
      9       0.010380   0.011949   0.352625  -0.305881   0.141155  -0.033588
     10       0.008029   0.018725  -0.449559   0.320841  -0.104183  -0.034734
     11       0.090965   0.141380   0.020219  -0.006634  -0.003804  -0.326447
     12       0.128303   0.257551  -0.284498   0.249198   0.394519  -0.226693
     13      -0.180217  -0.257734  -0.008793   0.013793  -0.281553   0.382370
     14       0.134225   0.160122   0.086756  -0.095256   0.046904  -0.147043
     15      -0.104216  -0.220122  -0.299444   0.255903   0.387511   0.200964
     16       0.206649   0.288562  -0.016189   0.035413  -0.297984  -0.404672
     17       0.112105   0.143782  -0.022689   0.041940  -0.060856  -0.094553
     18       0.517320   0.148103  -0.255233  -0.232996  -0.356517   0.346879
     19       0.392712  -0.501919  -0.426624  -0.517422   0.212081  -0.263831
     20       0.034180   0.221414   0.050337   0.037641  -0.053791   0.121074
     21      -0.496097  -0.107998  -0.251922  -0.224545  -0.338171  -0.329545
     22      -0.367840   0.561711  -0.402659  -0.499624   0.218292   0.293650
     23       0.216714   0.130675   0.094891   0.120364   0.068934   0.130266
     24       0.001542  -0.000653   0.010289   0.007317   0.003067   0.000029
     25       0.001845  -0.000712   0.012309   0.011533   0.006236   0.000034
     26       0.016013  -0.004678  -0.002461  -0.002017  -0.000988   0.000421
                 18         19         20         21         22         23    
      0       0.115565  -0.004069  -0.000362  -0.046514  -0.044130   0.053343
      1      -0.062214  -0.006947  -0.043559   0.081556   0.026719   0.071371
      2      -0.005253  -0.031851   0.006750  -0.004705  -0.000530  -0.021542
      3       0.012269  -0.000059   0.041034   0.097215   0.000835   0.000864
      4       0.005382  -0.006277  -0.040816  -0.058771  -0.000762  -0.000091
      5      -0.001675  -0.030153   0.003557  -0.002767   0.000052   0.000290
      6      -0.000067   0.000011   0.000058  -0.000025   0.000009   0.000014
      7       0.000010   0.000010   0.000034   0.000028   0.000003   0.000001
      8       0.000012   0.000043  -0.000012  -0.000001  -0.000001  -0.000003
      9      -0.282547   0.071080   0.080262  -0.018531   0.538459  -0.659241
     10       0.597062   0.060033  -0.183393   0.021493   0.318428  -0.375019
     11      -0.033746   0.659615  -0.036913   0.000208  -0.089337   0.105776
     12      -0.498839  -0.503539   0.033657   0.097226  -0.058924  -0.031178
     13      -0.018137  -0.021775   0.384205  -0.316384  -0.351177  -0.249098
     14       0.040891   0.062995  -0.372982   0.327307  -0.397281  -0.293507
     15      -0.492417   0.522267   0.016992   0.042099   0.029015   0.039158
     16      -0.012332   0.092641   0.453008  -0.385962  -0.264584  -0.233863
     17       0.062524  -0.003357   0.268163  -0.262018   0.492374   0.446922
     18      -0.133844   0.019224  -0.335122  -0.389313   0.002439   0.003500
     19       0.029854  -0.056211   0.171145   0.160077  -0.002734  -0.000497
[...]
M(i,i)=1/sqrt(m[i]) where m[i] is the mass of the displaced atom
Thus, these vectors are normalized but *not* orthogonal

                  0          1          2          3          4          5    
      0       0.000000   0.000000   0.000000   0.000000   0.000000   0.000000
      1       0.000000   0.000000   0.000000   0.000000   0.000000   0.000000
      2       0.000000   0.000000   0.000000   0.000000   0.000000   0.000000
      3       0.000000   0.000000   0.000000   0.000000   0.000000   0.000000
      4       0.000000   0.000000   0.000000   0.000000   0.000000   0.000000
      5       0.000000   0.000000   0.000000   0.000000   0.000000   0.000000
      6       0.000000   0.000000   0.000000   0.000000   0.000000   0.000000
      7       0.000000   0.000000   0.000000   0.000000   0.000000   0.000000
      8       0.000000   0.000000   0.000000   0.000000   0.000000   0.000000
      9       0.000000   0.000000   0.000000   0.000000   0.000000   0.000000
     10       0.000000   0.000000   0.000000   0.000000   0.000000   0.000000
     11       0.000000   0.000000   0.000000   0.000000   0.000000   0.000000
     12       0.000000   0.000000   0.000000   0.000000   0.000000   0.000000
     13       0.000000   0.000000   0.000000   0.000000   0.000000   0.000000
     14       0.000000   0.000000   0.000000   0.000000   0.000000   0.000000
     15       0.000000   0.000000   0.000000   0.000000   0.000000   0.000000
     16       0.000000   0.000000   0.000000   0.000000   0.000000   0.000000
     17       0.000000   0.000000   0.000000   0.000000   0.000000   0.000000
     18       0.000000   0.000000   0.000000   0.000000   0.000000   0.000000
     19       0.000000   0.000000   0.000000   0.000000   0.000000   0.000000
     20       0.000000   0.000000   0.000000   0.000000   0.000000   0.000000
     21       0.000000   0.000000   0.000000   0.000000   0.000000   0.000000
     22       0.000000   0.000000   0.000000   0.000000   0.000000   0.000000
     23       0.000000   0.000000   0.000000   0.000000   0.000000   0.000000
     24       0.000000   0.000000   0.000000   0.000000   0.000000   0.000000
     25       0.000000   0.000000   0.000000   0.000000   0.000000   0.000000
     26       0.000000   0.000000   0.000000   0.000000   0.000000   0.000000
                  6          7          8          9         10         11    
      0       0.094008  -0.035792  -0.006067   0.332928   0.012370   0.183128
      1       0.103766  -0.259828  -0.019185  -0.156924   0.016803   0.273101
      2      -0.019063   0.029482   0.001815  -0.020737   0.004407  -0.048944
      3       0.406185  -0.044910   0.027638   0.289572   0.009177  -0.063079
      4       0.534226  -0.226908   0.026377  -0.223433   0.015758  -0.056535
      5      -0.097640   0.019885   0.154494  -0.007551   0.234049   0.007933
      6      -0.030330   0.137575   0.000291  -0.046829  -0.002143  -0.016489
      7      -0.026951   0.180543   0.000314   0.010763  -0.001811  -0.001215
      8       0.006072  -0.033278  -0.006737   0.003897  -0.014227   0.002318
      9       0.386779  -0.001901   0.069566   0.276697  -0.086932  -0.028193
     10      -0.329411  -0.348323   0.074942  -0.086089  -0.059866   0.586237
     11      -0.088050  -0.050248   0.503319  -0.050085  -0.533646   0.041320
     12      -0.228305  -0.116283   0.143554   0.383635  -0.307410   0.448603
     13       0.059536  -0.329509   0.328171  -0.159756  -0.177488   0.326503
     14       0.055630   0.107875  -0.365596  -0.023680   0.231400  -0.129762
     15      -0.092109  -0.035272  -0.237220   0.402007   0.408082   0.305110
     16       0.115240  -0.214939  -0.462448  -0.129072   0.260361   0.239808
     17       0.018638   0.050768  -0.157308  -0.020624   0.042946  -0.085302
     18       0.117004  -0.042420   0.125356   0.287466   0.112878  -0.103617
     19       0.193088  -0.218064  -0.057771  -0.224959  -0.054849  -0.099401
     20      -0.020251   0.009140   0.241099  -0.008891   0.315335   0.016750
     21       0.175990  -0.024918  -0.049743   0.287406  -0.089062  -0.109825
     22       0.254453  -0.221340   0.137745  -0.229110   0.099714  -0.102741
     23      -0.052352   0.016294   0.230458  -0.007262   0.312826   0.019597
     24      -0.071112  -0.458814  -0.009814  -0.089824  -0.000696   0.003789
     25      -0.128005  -0.443458  -0.004147   0.113906  -0.006477  -0.096044
     26       0.020258   0.098584  -0.041693  -0.001222  -0.040348   0.009503
                 12         13         14         15         16         17    
      0       0.004053   0.025849  -0.055472  -0.119491  -0.126558   0.024402
      1       0.004661   0.009225  -0.035523  -0.058268   0.185749   0.007774
      2       0.011838  -0.034763  -0.002381   0.020259   0.005210   0.155677
      3      -0.005517  -0.019138   0.018840   0.124036   0.161287  -0.026568
      4      -0.006689   0.000774  -0.013729   0.039830  -0.179843  -0.004086
      5      -0.008133  -0.048212  -0.022582  -0.020270  -0.008021  -0.131579
      6       0.000379   0.000344  -0.001117   0.002368  -0.000065   0.000061
      7       0.000530   0.000834  -0.002146   0.002448   0.000139   0.000024
      8       0.002022   0.000016   0.000487  -0.000543  -0.000015   0.000067
      9      -0.003281   0.191186  -0.293281  -0.436994   0.025729  -0.063253
     10      -0.021799  -0.151456   0.322072   0.390029  -0.047027  -0.053145
     11      -0.075100   0.154632   0.039268  -0.003359  -0.047258  -0.310097
     12      -0.029514   0.194415   0.311580   0.228482  -0.537750  -0.227399
     13       0.030857  -0.246040  -0.093810   0.054109   0.248771   0.334425
     14      -0.019849   0.211106   0.030467  -0.116457  -0.010273  -0.162399
     15       0.011771  -0.341017   0.064937   0.198633  -0.473785   0.330447
     16      -0.046661   0.254929   0.195560   0.146089   0.155806  -0.394030
     17      -0.017819   0.148362   0.078205   0.047966   0.042479  -0.086664
     18      -0.480619   0.169369   0.486643  -0.215600   0.387465   0.349057
     19      -0.534237  -0.423111   0.222420  -0.442948  -0.193731  -0.189789
     20       0.106237   0.262238   0.023226   0.113169   0.064237   0.112131
     21       0.446289  -0.446831   0.256554  -0.245923   0.267100  -0.375674
     22       0.501019   0.185929   0.543141  -0.413155  -0.141069   0.255467
     23      -0.103853   0.234558   0.011239   0.054098  -0.034069   0.123973
     24       0.000712   0.003115  -0.007088   0.003388  -0.002116   0.000141
     25       0.000805   0.004426  -0.009448   0.005042  -0.003144   0.000004
     26      -0.005356  -0.000687   0.001529  -0.000767   0.000578   0.000781
                 18         19         20         21         22         23    
      0      -0.125132   0.012298   0.005153   0.061568   0.053506  -0.033082
      1       0.055358   0.008843   0.040702  -0.080925  -0.005555  -0.080585
      2       0.007670   0.032427  -0.007767   0.009240  -0.006089   0.018460
      3      -0.007149   0.008016  -0.048022  -0.092135  -0.000265  -0.002447
      4      -0.007369   0.003106   0.054536   0.059283   0.000630   0.000536
      5       0.007670   0.028446  -0.005520   0.004273  -0.000086  -0.000057
      6       0.000069   0.000007  -0.000068  -0.000014  -0.000018  -0.000007
      7       0.000025   0.000008  -0.000061  -0.000072  -0.000010   0.000012
      8      -0.000019  -0.000076   0.000017   0.000013   0.000003   0.000003
      9       0.335129  -0.121674  -0.088738   0.017950  -0.608412   0.486902
     10      -0.557573  -0.079020   0.160100  -0.042240  -0.448283   0.346662
     11       0.001911  -0.656280  -0.006264  -0.055345   0.174703  -0.138242
     12       0.534875   0.462107   0.036333  -0.115508   0.036841   0.034715
     13       0.081525   0.065799  -0.330305   0.323242   0.313440   0.399639
     14      -0.087368  -0.085206   0.361191  -0.385611   0.305843   0.403047
     15       0.431982  -0.527164  -0.020790  -0.114754  -0.065426  -0.091080
     16       0.069570  -0.164883  -0.443690   0.431644   0.183275   0.212822
     17      -0.084501   0.038182  -0.216858   0.270487  -0.405474  -0.488584
     18       0.123089  -0.059876   0.321463   0.305358   0.001313  -0.003458
     19      -0.056133   0.082115  -0.232369  -0.180252   0.000559   0.001283
     20       0.075887  -0.037492   0.290303   0.290655   0.000196   0.004525
     21       0.134628   0.001406   0.264170   0.271928   0.000980  -0.001702
     22      -0.097639  -0.047604  -0.300066  -0.262660  -0.000185   0.000553
     23      -0.084687   0.020092  -0.269746  -0.282954  -0.000869  -0.001379
     24       0.000222   0.000063   0.000195   0.000027   0.000073  -0.000033
     25      -0.000419   0.000007   0.000544  -0.000079   0.000316  -0.000244
     26      -0.000046   0.000139  -0.000070   0.000005  -0.000036   0.000027
                  24         25         26    
      0       0.012187   0.003005  -0.000510
      1       0.015933  -0.002724  -0.000389
      2       0.093105  -0.000620  -0.003722
      3      -0.000851  -0.048571  -0.007467
      4      -0.000150   0.043280  -0.013849
      5      -0.004450  -0.003247  -0.100592
      6       0.000012  -0.000030   0.000003
      7       0.000003  -0.000061   0.000008
      8      -0.000009   0.000012   0.000040
      9       0.015838   0.001357  -0.002105
     10       0.013294   0.003396  -0.001076
     11       0.010106  -0.000887   0.000842
     12      -0.050313   0.000024  -0.001140
     13      -0.499707   0.003440   0.021798
     14      -0.481116   0.003885   0.020439
     15      -0.109802   0.000656   0.008306
     16       0.294051  -0.002450  -0.014371
     17      -0.637334   0.004192   0.028612
     18      -0.004918   0.213319  -0.225378
     19       0.014619  -0.315991   0.331535
     20       0.021439  -0.578964   0.592995
     21       0.012790   0.324013   0.315158
     22      -0.010474  -0.170275  -0.169525
     23       0.031312   0.617368   0.589244
     24      -0.000007   0.000208  -0.000005
     25      -0.000005   0.000180   0.000009
     26       0.000010  -0.000031   0.000165


-----------
IR SPECTRUM
-----------

 Mode    freq (cm**-1)   T**2         TX         TY         TZ
-------------------------------------------------------------------
   7:        70.40    1.806935  (  0.769380   1.076420  -0.237299)
   8:       119.89   11.317020  (  1.207769   1.329939   2.844218)
   9:       134.58   21.871786  (  3.199283  -3.411207   0.006561)
  10:       170.90    5.226835  ( -0.701316  -0.563402   2.101802)
  11:       242.53   15.227075  ( -3.733853  -0.935403   0.640656)
  12:       621.58    0.133187  ( -0.165499  -0.188618   0.264992)
  13:       795.92   10.808837  (  0.535125   2.283166   2.304263)
  14:       804.16   36.151948  ( -2.551682  -5.057877   2.014635)
  15:       961.17  536.181600  ( 17.031349  15.289890  -3.511980)
  16:      1091.76   40.983503  (  0.976773  -6.321665   0.256843)
  17:      1175.95    4.029861  (  0.231850   0.007205  -1.994005)
  18:      1321.51   57.536695  (  6.600180  -3.639761  -0.852322)
  19:      1413.15   16.015098  ( -0.218885  -0.712135  -3.931927)
  20:      1420.69    8.622842  ( -2.775940  -0.615530   0.733567)
  21:      1454.40    2.516275  ( -0.527745   1.427711  -0.446545)
  22:      3056.45    0.368778  (  0.436130   0.387762   0.167954)
  23:      3152.42    6.208812  (  0.556646  -2.400039   0.372520)
  24:      3194.94    2.765104  (  0.761745   0.131329   1.472278)
  25:      3223.09    9.382478  ( -2.767884  -1.227433   0.463364)
  26:      3352.13   11.302724  (  0.447603   0.506936   3.293234)

The first frequency considered to be a vibration is 7
The total number of vibrations considered is 20


--------------------------
THERMOCHEMISTRY AT 298.15K
--------------------------

Temperature         ... 298.15 K
Pressure            ... 1.00 atm
Total Mass          ... 191.42 AMU

Throughout the following assumptions are being made:
  (1) The electronic state is orbitally nondegenerate
  (2) There are no thermally accessible electronically excited states
  (3) Hindered rotations indicated by low frequency modes are not
      treated as such but are treated as vibrations and this may
      cause some error
  (4) All equations used are the standard statistical mechanics
      equations for an ideal gas
  (5) All vibrations are strictly harmonic

freq.      70.40  E(vib)   ...       0.50 
freq.     119.89  E(vib)   ...       0.44 
freq.     134.58  E(vib)   ...       0.42 
freq.     170.90  E(vib)   ...       0.38 
freq.     242.53  E(vib)   ...       0.31 
freq.     621.58  E(vib)   ...       0.09 
freq.     795.92  E(vib)   ...       0.05 
freq.     804.16  E(vib)   ...       0.05 
freq.     961.17  E(vib)   ...       0.03 
freq.    1091.76  E(vib)   ...       0.02 
freq.    1175.95  E(vib)   ...       0.01 
freq.    1321.51  E(vib)   ...       0.01 
freq.    1413.15  E(vib)   ...       0.00 
freq.    1420.69  E(vib)   ...       0.00 
freq.    1454.40  E(vib)   ...       0.00 
freq.    3056.45  E(vib)   ...       0.00 
freq.    3152.42  E(vib)   ...       0.00 
freq.    3194.94  E(vib)   ...       0.00 
freq.    3223.09  E(vib)   ...       0.00 
freq.    3352.13  E(vib)   ...       0.00 

------------
INNER ENERGY
------------

The inner energy is: U= E(el) + E(ZPE) + E(vib) + E(rot) + E(trans)
    E(el)   - is the total energy from the electronic structure calculation
              = E(kin-el) + E(nuc-el) + E(el-el) + E(nuc-nuc)
    E(ZPE)  - the the zero temperature vibrational energy from the frequency calculation
    E(vib)  - the the finite temperature correction to E(ZPE) due to population
              of excited vibrational states
    E(rot)  - is the rotational thermal energy
    E(trans)- is the translational thermal energy

Summary of contributions to the inner energy U:
Electronic energy                ...   -836.82101054 Eh
Zero point energy                ...      0.06328207 Eh      39.71 kcal/mol
Thermal vibrational correction   ...      0.00368797 Eh       2.31 kcal/mol
Thermal rotational correction    ...      0.00141627 Eh       0.89 kcal/mol
Thermal translational correction ...      0.00141627 Eh       0.89 kcal/mol
-----------------------------------------------------------------------
Total thermal energy                   -836.75120796 Eh


Summary of corrections to the electronic energy:
(perhaps to be used in another calculation)
Total thermal correction                  0.00652051 Eh       4.09 kcal/mol
Non-thermal (ZPE) correction              0.06328207 Eh      39.71 kcal/mol
-----------------------------------------------------------------------
Total correction                          0.06980257 Eh      43.80 kcal/mol


--------
ENTHALPY
--------

The enthalpy is H = U + kB*T
                kB is Boltzmann's constant
Total free energy                 ...   -836.75120796 Eh 
Thermal Enthalpy correction       ...      0.00094421 Eh       0.59 kcal/mol
-----------------------------------------------------------------------
Total Enthalpy                    ...   -836.75026375 Eh


Note: Only C1 symmetry has been detected, increase convergence thresholds 
      if your molecule has a higher symmetry. Symmetry factor of 1.0 is   
      used for the rotational entropy correction. 
 

Note: Rotational entropy computed according to Herzberg 
Infrared and Raman Spectra, Chapter V,1, Van Nostrand Reinhold, 1945 
Point Group:  C1, Symmetry Number:   1  
Rotational constants in cm-1:     0.325465     0.017401     0.016628 

Vibrational entropy computed according to the QRRHO of S. Grimme
Chem.Eur.J. 2012 18 9955


-------
ENTROPY
-------

The entropy contributions are T*S = T*(S(el)+S(vib)+S(rot)+S(trans))
     S(el)   - electronic entropy
     S(vib)  - vibrational entropy
     S(rot)  - rotational entropy
     S(trans)- translational entropy
The entropies will be listed as mutliplied by the temperature to get
units of energy

Electronic entropy                ...      0.00000000 Eh      0.00 kcal/mol
Vibrational entropy               ...      0.00688131 Eh      4.32 kcal/mol
Rotational entropy                ...      0.01388727 Eh      8.71 kcal/mol
Translational entropy             ...      0.01979079 Eh     12.42 kcal/mol
-----------------------------------------------------------------------
Final entropy term                ...      0.04055937 Eh     25.45 kcal/mol

In case the symmetry of your molecule has not been determined correctly
or in case you have a reason to use a different symmetry number we print 
out the resulting rotational entropy values for sn=1,12 :
 --------------------------------------------------------
|  sn= 1 | S(rot)=       0.01388727 Eh      8.71 kcal/mol|
|  sn= 2 | S(rot)=       0.01323282 Eh      8.30 kcal/mol|
|  sn= 3 | S(rot)=       0.01284998 Eh      8.06 kcal/mol|
|  sn= 4 | S(rot)=       0.01257836 Eh      7.89 kcal/mol|
|  sn= 5 | S(rot)=       0.01236767 Eh      7.76 kcal/mol|
|  sn= 6 | S(rot)=       0.01219553 Eh      7.65 kcal/mol|
|  sn= 7 | S(rot)=       0.01204998 Eh      7.56 kcal/mol|
|  sn= 8 | S(rot)=       0.01192390 Eh      7.48 kcal/mol|
|  sn= 9 | S(rot)=       0.01181269 Eh      7.41 kcal/mol|
|  sn=10 | S(rot)=       0.01171321 Eh      7.35 kcal/mol|
|  sn=11 | S(rot)=       0.01162322 Eh      7.29 kcal/mol|
|  sn=12 | S(rot)=       0.01154107 Eh      7.24 kcal/mol|
 --------------------------------------------------------


-------------------
GIBBS FREE ENERGY
-------------------

The Gibbs free energy is G = H - T*S

Total enthalpy                    ...   -836.75026375 Eh 
Total entropy correction          ...     -0.04055937 Eh    -25.45 kcal/mol
-----------------------------------------------------------------------
Final Gibbs free energy         ...   -836.79082312 Eh

For completeness - the Gibbs free energy minus the electronic energy
G-E(el)                           ...      0.03018742 Eh     18.94 kcal/mol

[1631208677.959245] [comp0807:113147:0]            sys.c:618  UCX  ERROR shmget(size=2097152 flags=0xfb0) for mm_recv_desc failed: Operation not permitted, please check shared memory limits by 'ipcs -l'
[1631208677.962492] [comp0807:113149:0]            sys.c:618  UCX  ERROR shmget(size=2097152 flags=0xfb0) for mm_recv_desc failed: Operation not permitted, please check shared memory limits by 'ipcs -l'
[1631208677.988143] [comp0807:113150:0]            sys.c:618  UCX  ERROR shmget(size=2097152 flags=0xfb0) for mm_recv_desc failed: Operation not permitted, please check shared memory limits by 'ipcs -l'
[1631208677.988417] [comp0807:113148:0]            sys.c:618  UCX  ERROR shmget(size=2097152 flags=0xfb0) for mm_recv_desc failed: Operation not permitted, please check shared memory limits by 'ipcs -l'
[1631208677.996353] [comp0807:113147:0]            sys.c:618  UCX  ERROR shmget(size=2097152 flags=0xb80) for ucp_am_bufs failed: Operation not permitted, please check shared memory limits by 'ipcs -l'
[1631208677.997081] [comp0807:113149:0]            sys.c:618  UCX  ERROR shmget(size=2097152 flags=0xb80) for ucp_am_bufs failed: Operation not permitted, please check shared memory limits by 'ipcs -l'
[1631208678.004160] [comp0807:113148:0]            sys.c:618  UCX  ERROR shmget(size=2097152 flags=0xb80) for ucp_am_bufs failed: Operation not permitted, please check shared memory limits by 'ipcs -l'

Timings for individual modules:

Sum of individual times         ...      348.225 sec (=   5.804 min)
GTO integral calculation        ...       36.751 sec (=   0.613 min)  10.6 %
SCF iterations                  ...      186.994 sec (=   3.117 min)  53.7 %
SCF Gradient evaluation         ...       70.288 sec (=   1.171 min)  20.2 %
Geometry relaxation             ...        2.275 sec (=   0.038 min)   0.7 %
Analytical frequency calculation...       51.917 sec (=   0.865 min)  14.9 %
                             ****ORCA TERMINATED NORMALLY****
TOTAL RUN TIME: 0 days 0 hours 5 minutes 55 seconds 786 msec
