
                                 *****************
                                 * O   R   C   A *
                                 *****************

           --- An Ab Initio, DFT and Semiempirical electronic structure package ---

                  #######################################################
                  #                        -***-                        #
                  #          Department of theory and spectroscopy      #
                  #               Directorship: Frank Neese             #
                  #        Max Planck Institute fuer Kohlenforschung    #
                  #                Kaiser Wilhelm Platz 1               #
                  #                 D-45470 Muelheim/Ruhr               #
                  #                      Germany                        #
                  #                                                     #
                  #                  All rights reserved                #
                  #                        -***-                        #
                  #######################################################


                         Program Version 4.2.1 -  RELEASE  -


 With contributions from (in alphabetic order):
   Daniel Aravena         : Magnetic Suceptibility
   Michael Atanasov       : Ab Initio Ligand Field Theory (pilot matlab implementation)
   Alexander A. Auer      : GIAO ZORA, VPT2
   Ute Becker             : Parallelization
   Giovanni Bistoni       : ED, misc. LED, open-shell LED, HFLD
   Martin Brehm           : Molecular dynamics
   Dmytro Bykov           : SCF Hessian
   Vijay G. Chilkuri      : MRCI spin determinant printing, contributions to CSF-ICE
   Dipayan Datta          : RHF DLPNO-CCSD density
   Achintya Kumar Dutta   : EOM-CC, STEOM-CC
   Dmitry Ganyushin       : Spin-Orbit,Spin-Spin,Magnetic field MRCI
   Miquel Garcia          : C-PCM Hessian, Gaussian charge scheme
   Yang Guo               : DLPNO-NEVPT2, CIM, IAO-localization
   Andreas Hansen         : Spin unrestricted coupled pair/coupled cluster methods
   Benjamin Helmich-Paris : CASSCF linear response (MC-RPA)
   Lee Huntington         : MR-EOM, pCC
   Robert Izsak           : Overlap fitted RIJCOSX, COSX-SCS-MP3, EOM
   Christian Kollmar      : KDIIS, OOCD, Brueckner-CCSD(T), CCSD density
   Simone Kossmann        : Meta GGA functionals, TD-DFT gradient, OOMP2, MP2 Hessian
   Martin Krupicka        : AUTO-CI
   Lucas Lang             : DCDCAS
   Dagmar Lenk            : GEPOL surface, SMD
   Dimitrios Liakos       : Extrapolation schemes; Compound Job, initial MDCI parallelization
   Dimitrios Manganas     : Further ROCIS development; embedding schemes
   Dimitrios Pantazis     : SARC Basis sets
   Taras Petrenko         : DFT Hessian,TD-DFT gradient, ASA, ECA, R-Raman, ABS, FL, XAS/XES, NRVS
   Peter Pinski           : DLPNO-MP2, DLPNO-MP2 Gradient
   Christoph Reimann      : Effective Core Potentials
   Marius Retegan         : Local ZFS, SOC
   Christoph Riplinger    : Optimizer, TS searches, QM/MM, DLPNO-CCSD(T), (RO)-DLPNO pert. Triples
   Tobias Risthaus        : Range-separated hybrids, TD-DFT gradient, RPA, STAB
   Michael Roemelt        : Original ROCIS implementation
   Masaaki Saitow         : Open-shell DLPNO-CCSD energy and density
   Barbara Sandhoefer     : DKH picture change effects
   Avijit Sen             : IP-ROCIS
   Kantharuban Sivalingam : CASSCF convergence, NEVPT2, FIC-MRCI
   Bernardo de Souza      : ESD, SOC TD-DFT
   Georgi Stoychev        : AutoAux, RI-MP2 NMR
   Willem Van den Heuvel  : Paramagnetic NMR
   Boris Wezisla          : Elementary symmetry handling
   Frank Wennmohs         : Technical directorship


 We gratefully acknowledge several colleagues who have allowed us to
 interface, adapt or use parts of their codes:
   Stefan Grimme, W. Hujo, H. Kruse,             : VdW corrections, initial TS optimization,
                  C. Bannwarth                     DFT functionals, gCP, sTDA/sTD-DF
   Ed Valeev, F. Pavosevic, A. Kumar             : LibInt (2-el integral package), F12 methods
   Garnet Chan, S. Sharma, J. Yang, R. Olivares  : DMRG
   Ulf Ekstrom                                   : XCFun DFT Library
   Mihaly Kallay                                 : mrcc  (arbitrary order and MRCC methods)
   Andreas Klamt, Michael Diedenhofen            : otool_cosmo (COSMO solvation model)
   Jiri Pittner, Ondrej Demel                    : Mk-CCSD
   Frank Weinhold                                : gennbo (NPA and NBO analysis)
   Christopher J. Cramer and Donald G. Truhlar   : smd solvation model
   Lars Goerigk                                  : TD-DFT with DH, B97 family of functionals
   V. Asgeirsson, H. Jonsson                     : NEB implementation
   FAccTs GmbH                                   : IRC, NEB, NEB-TS, Multilevel, MM, QM/MM, CI optimization
   S Lehtola, MJT Oliveira, MAL Marques          : LibXC Library


 Your calculation uses the libint2 library for the computation of 2-el integrals
 For citations please refer to: http://libint.valeyev.net

 Your ORCA version has been built with support for libXC version: 4.2.3
 For citations please refer to: https://tddft.org/programs/libxc/

 This ORCA versions uses:
   CBLAS   interface :  Fast vector & matrix operations
   LAPACKE interface :  Fast linear algebra routines
   SCALAPACK package :  Parallel linear algebra routines


Your calculation utilizes the atom-pairwise dispersion correction
with the Becke-Johnson damping scheme (D3BJ)
Cite in your paper:
S.Grimme, S.Ehrlich, L.Goerigk, J Comput Chem, (2011), 32, 1456–1465 
S.Grimme, J.Antony, S.Ehrlich and H.Krieg, J.Chem.Phys., 132, (2010), 154104 
   

----- Orbital basis set information -----
Your calculation utilizes the basis: def2-SVP
   F. Weigend and R. Ahlrichs, Phys. Chem. Chem. Phys. 7, 3297 (2005).

----- AuxJ basis set information -----
Your calculation utilizes the auxiliary basis: def2/J
   F. Weigend, Phys. Chem. Chem. Phys. 8, 1057 (2006).

================================================================================
                                        WARNINGS
                       Please study these warnings very carefully!
================================================================================


WARNING: Geometry Optimization
  ===> : Switching off AutoStart
         For restart on a previous wavefunction, please use MOREAD

INFO   : the flag for use of LIBINT has been found!

================================================================================
                                       INPUT FILE
================================================================================
NAME = manual_330.inp
|  1> ! OptTS Freq PBE0 RIJCOSX D3BJ def2-SVP def2/J CPCM(Acetone)
|  2> %geom
|  3> modify_internal
|  4> { B 3 14 A } end
|  5> end
|  6> %geom
|  7> modify_internal
|  8> { B 3 4 A } end
|  9> end
| 10> %output 
| 11> xyzfile=True 
| 12> end 
| 13> %scf 
| 14> maxiter 250 
| 15> end
| 16> %output
| 17> Print[P_Hirshfeld] = 1
| 18> end
| 19> % maxcore
| 20> 4000
| 21> %geom
| 22> Calc_Hess true
| 23> Recalc_Hess 30
| 24> Trust -0.1
| 25> MaxIter 150
| 26> end
| 27> %pal nprocs 4
| 28> end
| 29> *xyz -1 1
| 30> C     2.39274   0.14302  -0.92768
| 31> C     1.02683   0.78234  -0.69679
| 32> C     0.62904   1.74746  -1.80892
| 33> C    -0.04097  -0.25020  -0.43572
| 34> Br   -0.71578   0.18185   1.88201
| 35> H     2.37224  -0.46166  -1.84606
| 36> H     3.16903   0.91782  -1.02107
| 37> H     2.66760  -0.51504  -0.08816
| 38> H     1.09277   1.37060   0.23255
| 39> H    -0.32014   2.25414  -1.57136
| 40> H     1.39842   2.52300  -1.94482
| 41> H     0.50311   1.19464  -2.75088
| 42> H    -1.07118  -0.06902  -0.72448
| 43> H     0.21935  -1.25460  -0.11997
| 44> Br   -0.02967  -1.40001  -2.65132 
| 45> *
| 46> 
| 47>                          ****END OF INPUT****
================================================================================

                       *****************************
                       * Geometry Optimization Run *
                       *****************************

Geometry optimization settings:
Update method            Update   .... Bofill
Choice of coordinates    CoordSys .... Z-matrix Internals
Initial Hessian          InHess   .... Almoef's Model

Convergence Tolerances:
Energy Change            TolE     ....  5.0000e-06 Eh
Max. Gradient            TolMAXG  ....  3.0000e-04 Eh/bohr
RMS Gradient             TolRMSG  ....  1.0000e-04 Eh/bohr
Max. Displacement        TolMAXD  ....  4.0000e-03 bohr
RMS Displacement         TolRMSD  ....  2.0000e-03 bohr
Strict Convergence                ....  False
------------------------------------------------------------------------------
                        ORCA OPTIMIZATION COORDINATE SETUP
------------------------------------------------------------------------------

The optimization will be done in new redundant internal coordinates
Making redundant internal coordinates   ...  (new redundants) Bond  14,  3 is already included
Bond   4,  3 is already included
done
Following TS mode number                ...     0
Evaluating the initial hessian          ...  (Is done on the fly) done
Evaluating the coordinates              ...  done
Calculating the B-matrix                .... done
Calculating the G-matrix                .... done
Diagonalizing the G-matrix              .... done
The first mode is                       ....   85
The number of degrees of freedom        ....   39

    -----------------------------------------------------------------
                    Redundant Internal Coordinates


    -----------------------------------------------------------------
         Definition                    Initial Value    d2E/dq (diagonal element)
    -----------------------------------------------------------------
      1. B(C   1,C   0)                  1.5257         0.000000   
      2. B(C   2,C   1)                  1.5253         0.000000   
      3. B(C   3,C   1)                  1.5081         0.000000   
      4. B(Br  4,C   3)                  2.4523         0.000000   
      5. B(Br  4,C   1)                  3.1698         0.000000   
      6. B(H   5,C   0)                  1.0998         0.000000   
      7. B(H   6,C   0)                  1.1008         0.000000   
      8. B(H   7,C   0)                  1.1015         0.000000   
      9. B(H   8,Br  4)                  2.7212         0.000000   
     10. B(H   8,C   1)                  1.1018         0.000000   
     11. B(H   9,C   2)                  1.1019         0.000000   
     12. B(H  10,C   2)                  1.1009         0.000000   
     13. B(H  11,C   2)                  1.0994         0.000000   
     14. B(H  12,C   3)                  1.0851         0.000000   
     15. B(H  12,Br  4)                  2.6425         0.000000   
     16. B(H  13,C   3)                  1.0846         0.000000   
     17. B(H  13,Br  4)                  2.6355         0.000000   
     18. B(Br 14,H  12)                  2.5630         0.000000   
     19. B(Br 14,H  11)                  2.6507         0.000000   
     20. B(Br 14,H   5)                  2.7015         0.000000   
     21. B(Br 14,C   3)                  2.4962         0.000000   
     22. B(Br 14,H  13)                  2.5477         0.000000   
     23. B(Br 14,C   1)                  3.1143         0.000000   
     24. A(C   1,C   0,H   6)          110.4423         0.000000   
     25. A(H   5,C   0,H   7)          108.2172         0.000000   
     26. A(C   1,C   0,H   7)          111.0011         0.000000   
     27. A(H   5,C   0,H   6)          109.2269         0.000000   
     28. A(C   1,C   0,H   5)          109.8819         0.000000   
     29. A(H   6,C   0,H   7)          108.0102         0.000000   
     30. A(C   3,C   1,Br  4)           48.7173         0.000000   
     31. A(C   2,C   1,C   3)          112.0101         0.000000   
     32. A(C   2,C   1,Br  4)          124.7279         0.000000   
     33. A(C   2,C   1,H   8)          107.0236         0.000000   
     34. A(C   3,C   1,H   8)          105.1821         0.000000   
     35. A(C   2,C   1,Br 14)           84.1069         0.000000   
     36. A(C   0,C   1,Br 14)           85.1296         0.000000   
     37. A(Br  4,C   1,H   8)           56.4857         0.000000   
     38. A(C   0,C   1,H   8)          107.3243         0.000000   
     39. A(C   0,C   1,C   2)          112.8476         0.000000   
     40. A(Br  4,C   1,Br 14)          101.0306         0.000000   
     41. A(C   0,C   1,C   3)          111.9118         0.000000   
     42. A(H   8,C   1,Br 14)          157.4812         0.000000   
     43. A(C   3,C   1,Br 14)           52.3158         0.000000   
     44. A(C   0,C   1,Br  4)          122.4062         0.000000   
     45. A(H   9,C   2,H  10)          107.7409         0.000000   
     46. A(C   1,C   2,H  10)          110.7017         0.000000   
     47. A(C   1,C   2,H   9)          111.0032         0.000000   
     48. A(H  10,C   2,H  11)          109.1788         0.000000   
     49. A(H   9,C   2,H  11)          108.4977         0.000000   
     50. A(C   1,C   2,H  11)          109.6580         0.000000   
     51. A(Br  4,C   3,H  13)           87.3665         0.000000   
     52. A(Br  4,C   3,H  12)           87.7558         0.000000   
     53. A(C   1,C   3,Br  4)          103.7575         0.000000   
     54. A(C   1,C   3,H  12)          120.7841         0.000000   
     55. A(H  12,C   3,H  13)          117.3848         0.000000   
     56. A(C   1,C   3,H  13)          120.9636         0.000000   
     57. A(Br  4,C   3,Br 14)          157.1121         0.000000   
     58. A(H  13,C   3,Br 14)           80.2553         0.000000   
     59. A(H  12,C   3,Br 14)           81.0841         0.000000   
     60. A(C   1,C   3,Br 14)           99.1204         0.000000   
     61. A(C   1,Br  4,C   3)           27.5252         0.000000   
     62. A(C   1,Br 14,C   3)           28.5638         0.000000   
     63. D(H   8,C   1,C   0,H   7)     60.0066         0.000000   
     64. D(Br  4,C   1,C   0,H   5)    118.8187         0.000000   
     65. D(C   2,C   1,C   0,H   5)    -62.6696         0.000000   
     66. D(C   3,C   1,C   0,H   7)    -54.9015         0.000000   
     67. D(C   3,C   1,C   0,H   6)   -174.6724         0.000000   
     68. D(Br 14,C   1,C   0,H   7)   -100.8287         0.000000   
     69. D(H   8,C   1,C   0,H   5)    179.6708         0.000000   
     70. D(H   8,C   1,C   0,H   6)    -59.7644         0.000000   
     71. D(C   2,C   1,C   0,H   6)     57.8953         0.000000   
     72. D(Br 14,C   1,C   0,H   6)    139.4004         0.000000   
     73. D(C   3,C   1,C   0,H   5)     64.7627         0.000000   
     74. D(Br 14,C   1,C   0,H   5)     18.8355         0.000000   
     75. D(Br  4,C   1,C   0,H   6)   -120.6165         0.000000   
     76. D(C   2,C   1,C   0,H   7)    177.6662         0.000000   
     77. D(Br  4,C   1,C   0,H   7)     -0.8456         0.000000   
     78. D(H  11,C   2,C   1,Br 14)    -17.2990         0.000000   
     79. D(H  11,C   2,C   1,Br  4)   -116.6507         0.000000   
     80. D(H  11,C   2,C   1,H   8)   -177.2856         0.000000   
     81. D(H  11,C   2,C   1,C   0)     64.8781         0.000000   
     82. D(H  10,C   2,C   1,Br 14)   -137.8246         0.000000   
     83. D(H  10,C   2,C   1,Br  4)    122.8237         0.000000   
     84. D(H   9,C   2,C   1,Br  4)      3.2188         0.000000   
     85. D(H   9,C   2,C   1,H   8)    -57.4161         0.000000   
     86. D(H   9,C   2,C   1,Br 14)    102.5705         0.000000   
     87. D(H  11,C   2,C   1,C   3)    -62.5023         0.000000   
     88. D(H  10,C   2,C   1,C   3)    176.9720         0.000000   
     89. D(H  10,C   2,C   1,H   8)     62.1888         0.000000   
     90. D(H  10,C   2,C   1,C   0)    -55.6475         0.000000   
     91. D(H   9,C   2,C   1,C   3)     57.3672         0.000000   
     92. D(H   9,C   2,C   1,C   0)   -175.2523         0.000000   
     93. D(H  12,C   3,C   1,C   0)   -149.7691         0.000000   
     94. D(Br 14,C   3,C   1,Br  4)   -179.3174         0.000000   
     95. D(Br 14,C   3,C   1,C   2)     63.1160         0.000000   
     96. D(Br 14,C   3,C   1,C   0)    -64.7642         0.000000   
     97. D(Br  4,C   3,C   1,Br 14)    179.3174         0.000000   
     98. D(Br  4,C   3,C   1,C   2)   -117.5665         0.000000   
     99. D(Br  4,C   3,C   1,C   0)    114.5532         0.000000   
    100. D(H  13,C   3,C   1,Br 14)     84.0539         0.000000   
    101. D(H  13,C   3,C   1,Br  4)    -95.2635         0.000000   
    102. D(H  13,C   3,C   1,H   8)    -96.9242         0.000000   
    103. D(H  13,C   3,C   1,C   2)    147.1700         0.000000   
    104. D(Br  4,C   3,C   1,H   8)     -1.6608         0.000000   
    105. D(H  13,C   3,C   1,C   0)     19.2897         0.000000   
    106. D(H  12,C   3,C   1,Br 14)    -85.0048         0.000000   
    107. D(H  12,C   3,C   1,Br  4)     95.6777         0.000000   
    108. D(Br 14,C   3,C   1,H   8)    179.0218         0.000000   
    109. D(H  12,C   3,C   1,H   8)     94.0170         0.000000   
    110. D(H  12,C   3,C   1,C   2)    -21.8888         0.000000   
    111. D(C   1,Br  4,C   3,H  13)    121.2644         0.000000   
    112. D(C   1,Br  4,C   3,H  12)   -121.1802         0.000000   
    113. D(C   3,Br  4,C   1,Br 14)     -0.5503         0.000000   
    114. D(C   3,Br  4,C   1,H   8)    178.0775         0.000000   
    115. D(C   3,Br  4,C   1,C   2)     89.8989         0.000000   
    116. D(C   1,Br  4,C   3,Br 14)    178.2670         0.000000   
    117. D(C   3,Br  4,C   1,C   0)    -91.7698         0.000000   
    118. D(C   1,Br 14,C   3,Br  4)   -178.2952         0.000000   
    119. D(C   1,Br 14,C   3,H  13)   -120.0754         0.000000   
    120. D(C   1,Br 14,C   3,H  12)    119.9678         0.000000   
    121. D(C   3,Br 14,C   1,Br  4)      0.5226         0.000000   
    122. D(C   3,Br 14,C   1,H   8)     -2.4656         0.000000   
    123. D(C   3,Br 14,C   1,C   2)   -123.7663         0.000000   
    124. D(C   3,Br 14,C   1,C   0)    122.6209         0.000000   
    -----------------------------------------------------------------

Number of atoms                         .... 15
Number of degrees of freedom            .... 124

         *************************************************************
         *                GEOMETRY OPTIMIZATION CYCLE   1            *
         *************************************************************
---------------------------------
CARTESIAN COORDINATES (ANGSTROEM)
---------------------------------
  C      2.392740    0.143020   -0.927680
  C      1.026830    0.782340   -0.696790
  C      0.629040    1.747460   -1.808920
  C     -0.040970   -0.250200   -0.435720
  Br    -0.715780    0.181850    1.882010
  H      2.372240   -0.461660   -1.846060
  H      3.169030    0.917820   -1.021070
  H      2.667600   -0.515040   -0.088160
  H      1.092770    1.370600    0.232550
  H     -0.320140    2.254140   -1.571360
  H      1.398420    2.523000   -1.944820
  H      0.503110    1.194640   -2.750880
  H     -1.071180   -0.069020   -0.724480
  H      0.219350   -1.254600   -0.119970
  Br    -0.029670   -1.400010   -2.651320

----------------------------
CARTESIAN COORDINATES (A.U.)
----------------------------
  NO LB      ZA    FRAG     MASS         X           Y           Z
   0 C     6.0000    0    12.011    4.521623    0.270269   -1.753061
   1 C     6.0000    0    12.011    1.940427    1.478408   -1.316742
   2 C     6.0000    0    12.011    1.188713    3.302221   -3.418363
   3 C     6.0000    0    12.011   -0.077422   -0.472809   -0.823391
   4 Br   35.0000    0    79.900   -1.352628    0.343647    3.556483
   5 H     1.0000    0     1.008    4.482884   -0.872411   -3.488548
   6 H     1.0000    0     1.008    5.988599    1.734428   -1.929543
   7 H     1.0000    0     1.008    5.041033   -0.973285   -0.166598
   8 H     1.0000    0     1.008    2.065036    2.590059    0.439456
   9 H     1.0000    0     1.008   -0.604977    4.259707   -2.969440
  10 H     1.0000    0     1.008    2.642631    4.767779   -3.675177
  11 H     1.0000    0     1.008    0.950740    2.257542   -5.198410
  12 H     1.0000    0     1.008   -2.024237   -0.130429   -1.369069
  13 H     1.0000    0     1.008    0.414511   -2.370850   -0.226710
  14 Br   35.0000    0    79.900   -0.056068   -2.645635   -5.010269

--------------------------------
INTERNAL COORDINATES (ANGSTROEM)
--------------------------------
 C      0   0   0     0.000000000000     0.00000000     0.00000000
 C      1   0   0     1.525696687615     0.00000000     0.00000000
 C      2   1   0     1.525295589517   112.84764788     0.00000000
 C      2   1   3     1.508142313079   111.91183111   127.43230084
 Br     4   2   1     2.452327076778   103.75752220   114.55319752
 H      1   2   3     1.099763600416   109.88194630   297.33042644
 H      1   2   3     1.100755602393   110.44227904    57.89525944
 H      1   2   3     1.101537477165   111.00111978   177.66619205
 H      2   1   3     1.101848785814   107.32429528   242.34038482
 H      3   2   1     1.101862989849   111.00316276   184.74765226
 H      3   2   1     1.100852708585   110.70172314   304.35250251
 H      3   2   1     1.099434836132   109.65797099    64.87814320
 H      4   2   1     1.085145692569   120.78411360   210.23092517
 H      4   2   1     1.084566238134   120.96358473    19.28970701
 Br     4   2   1     2.496211947351    99.12039791   295.23575763

---------------------------
INTERNAL COORDINATES (A.U.)
---------------------------
 C      0   0   0     0.000000000000     0.00000000     0.00000000
 C      1   0   0     2.883148903024     0.00000000     0.00000000
 C      2   1   0     2.882390937465   112.84764788     0.00000000
 C      2   1   3     2.849975942698   111.91183111   127.43230084
 Br     4   2   1     4.634226565911   103.75752220   114.55319752
 H      1   2   3     2.078252016841   109.88194630   297.33042644
 H      1   2   3     2.080126628903   110.44227904    57.89525944
 H      1   2   3     2.081604158093   111.00111978   177.66619205
 H      2   1   3     2.082192446182   107.32429528   242.34038482
 H      3   2   1     2.082219287919   111.00316276   184.74765226
 H      3   2   1     2.080310133012   110.70172314   304.35250251
 H      3   2   1     2.077630742382   109.65797099    64.87814320
 H      4   2   1     2.050628174359   120.78411360   210.23092517
 H      4   2   1     2.049533164170   120.96358473    19.28970701
 Br     4   2   1     4.717156952716    99.12039791   295.23575763

---------------------
BASIS SET INFORMATION
---------------------
There are 3 groups of distinct atoms

 Group   1 Type C   : 7s4p1d contracted to 3s2p1d pattern {511/31/1}
 Group   2 Type Br  : 14s10p6d contracted to 5s4p3d pattern {63311/5311/411}
 Group   3 Type H   : 4s1p contracted to 2s1p pattern {31/1}

Atom   0C    basis set group =>   1
Atom   1C    basis set group =>   1
Atom   2C    basis set group =>   1
Atom   3C    basis set group =>   1
Atom   4Br   basis set group =>   2
Atom   5H    basis set group =>   3
Atom   6H    basis set group =>   3
Atom   7H    basis set group =>   3
Atom   8H    basis set group =>   3
Atom   9H    basis set group =>   3
Atom  10H    basis set group =>   3
Atom  11H    basis set group =>   3
Atom  12H    basis set group =>   3
Atom  13H    basis set group =>   3
Atom  14Br   basis set group =>   2
---------------------------------
AUXILIARY/J BASIS SET INFORMATION
---------------------------------
There are 3 groups of distinct atoms

 Group   1 Type C   : 12s5p4d2f1g contracted to 6s4p3d1f1g pattern {711111/2111/211/2/1}
 Group   2 Type Br  : 19s5p5d3f1g contracted to 8s4p3d2f1g pattern {121111111/2111/311/21/1}
 Group   3 Type H   : 5s2p1d contracted to 3s1p1d pattern {311/2/1}

Atom   0C    basis set group =>   1
Atom   1C    basis set group =>   1
Atom   2C    basis set group =>   1
Atom   3C    basis set group =>   1
Atom   4Br   basis set group =>   2
Atom   5H    basis set group =>   3
Atom   6H    basis set group =>   3
Atom   7H    basis set group =>   3
Atom   8H    basis set group =>   3
Atom   9H    basis set group =>   3
Atom  10H    basis set group =>   3
Atom  11H    basis set group =>   3
Atom  12H    basis set group =>   3
Atom  13H    basis set group =>   3
Atom  14Br   basis set group =>   2
[1631208293.086175] [comp0806:236155:0]            sys.c:618  UCX  ERROR shmget(size=2097152 flags=0xfb0) for mm_recv_desc failed: Operation not permitted, please check shared memory limits by 'ipcs -l'
[1631208293.097210] [comp0806:236152:0]            sys.c:618  UCX  ERROR shmget(size=2097152 flags=0xfb0) for mm_recv_desc failed: Operation not permitted, please check shared memory limits by 'ipcs -l'
[1631208293.097653] [comp0806:236157:0]            sys.c:618  UCX  ERROR shmget(size=2097152 flags=0xfb0) for mm_recv_desc failed: Operation not permitted, please check shared memory limits by 'ipcs -l'
[1631208293.098841] [comp0806:236153:0]            sys.c:618  UCX  ERROR shmget(size=2097152 flags=0xfb0) for mm_recv_desc failed: Operation not permitted, please check shared memory limits by 'ipcs -l'
[1631208293.106711] [comp0806:236152:0]            sys.c:618  UCX  ERROR shmget(size=2097152 flags=0xb80) for ucp_am_bufs failed: Operation not permitted, please check shared memory limits by 'ipcs -l'
[1631208293.107441] [comp0806:236153:0]            sys.c:618  UCX  ERROR shmget(size=2097152 flags=0xb80) for ucp_am_bufs failed: Operation not permitted, please check shared memory limits by 'ipcs -l'
[1631208293.112793] [comp0806:236157:0]            sys.c:618  UCX  ERROR shmget(size=2097152 flags=0xb80) for ucp_am_bufs failed: Operation not permitted, please check shared memory limits by 'ipcs -l'
[1631208293.113564] [comp0806:236155:0]            sys.c:618  UCX  ERROR shmget(size=2097152 flags=0xb80) for ucp_am_bufs failed: Operation not permitted, please check shared memory limits by 'ipcs -l'


           ************************************************************
           *        Program running with 4 parallel MPI-processes     *
           *              working on a common directory               *
           ************************************************************
------------------------------------------------------------------------------
                           ORCA GTO INTEGRAL CALCULATION
                           -- RI-GTO INTEGRALS CHOSEN --
------------------------------------------------------------------------------

                         BASIS SET STATISTICS AND STARTUP INFO

Gaussian basis set:
 # of primitive gaussian shells          ...  153
 # of primitive gaussian functions       ...  307
 # of contracted shells                  ...   75
 # of contracted basis functions         ...  165
 Highest angular momentum                ...    2
 Maximum contraction depth               ...    6
Auxiliary gaussian basis set:
 # of primitive gaussian shells          ...  234
 # of primitive gaussian functions       ...  602
 # of contracted shells                  ...  141
 # of contracted aux-basis functions     ...  411
 Highest angular momentum                ...    4
 Maximum contraction depth               ...   12
Ratio of auxiliary to basis functions    ...  2.49
Integral package used                  ... LIBINT
 One Electron integrals                  ... done
 Ordering auxiliary basis shells         ... done
 Integral threshhold             Thresh  ...  2.500e-11
 Primitive cut-off               TCut    ...  2.500e-12
 Pre-screening matrix                    ... done
 Shell pair data                         ... 
 Ordering of the shell pairs             ... done (   0.000 sec) 2597 of 2850 pairs
 Determination of significant pairs      ... done (   0.000 sec)
 Creation of shell pair data             ... done (   0.000 sec)
 Storage of shell pair data              ... done (   0.001 sec)
 Shell pair data done in (   0.002 sec)
 Computing two index integrals           ... done
 Cholesky decomposition of the V-matrix  ... done


Timings:
 Total evaluation time                   ...   0.213 sec (  0.004 min)
 One electron matrix time                ...   0.025 sec (  0.000 min) = 11.9%
 Schwartz matrix evaluation time         ...   0.143 sec (  0.002 min) = 67.3%
 Two index repulsion integral time       ...   0.004 sec (  0.000 min) =  1.7%
 Cholesky decomposition of V             ...   0.003 sec (  0.000 min) =  1.2%
 Three index repulsion integral time     ...   0.000 sec (  0.000 min) =  0.0%

[1631208294.239057] [comp0806:236221:0]            sys.c:618  UCX  ERROR shmget(size=2097152 flags=0xfb0) for mm_recv_desc failed: Operation not permitted, please check shared memory limits by 'ipcs -l'
[1631208294.240034] [comp0806:236215:0]            sys.c:618  UCX  ERROR shmget(size=2097152 flags=0xfb0) for mm_recv_desc failed: Operation not permitted, please check shared memory limits by 'ipcs -l'
[1631208294.277248] [comp0806:236224:0]            sys.c:618  UCX  ERROR shmget(size=2097152 flags=0xfb0) for mm_recv_desc failed: Operation not permitted, please check shared memory limits by 'ipcs -l'
[1631208294.277718] [comp0806:236218:0]            sys.c:618  UCX  ERROR shmget(size=2097152 flags=0xfb0) for mm_recv_desc failed: Operation not permitted, please check shared memory limits by 'ipcs -l'
[1631208294.285556] [comp0806:236221:0]            sys.c:618  UCX  ERROR shmget(size=2097152 flags=0xb80) for ucp_am_bufs failed: Operation not permitted, please check shared memory limits by 'ipcs -l'
[1631208294.285575] [comp0806:236215:0]            sys.c:618  UCX  ERROR shmget(size=2097152 flags=0xb80) for ucp_am_bufs failed: Operation not permitted, please check shared memory limits by 'ipcs -l'


           ************************************************************
           *        Program running with 4 parallel MPI-processes     *
           *              working on a common directory               *
           ************************************************************
-------------------------------------------------------------------------------
                                 ORCA SCF
-------------------------------------------------------------------------------

------------
SCF SETTINGS
------------
Hamiltonian:
 Density Functional     Method          .... DFT(GTOs)
 Exchange Functional    Exchange        .... PBE
   PBE kappa parameter   XKappa         ....  0.804000
   PBE mue parameter    XMuePBE         ....  0.219520
 Correlation Functional Correlation     .... PBE
   PBE beta parameter  CBetaPBE         ....  0.066725
 LDA part of GGA corr.  LDAOpt          .... PW91-LDA
 Gradients option       PostSCFGGA      .... off
 Hybrid DFT is turned on
   Fraction HF Exchange ScalHFX         ....  0.250000
   Scaling of DF-GGA-X  ScalDFX         ....  0.750000
   Scaling of DF-GGA-C  ScalDFC         ....  1.000000
   Scaling of DF-LDA-C  ScalLDAC        ....  1.000000
   Perturbative correction              ....  0.000000
   Density functional embedding theory  .... OFF
   NL short-range parameter             ....  6.900000
 RI-approximation to the Coulomb term is turned on
   Number of auxiliary basis functions  .... 411
   RIJ-COSX (HFX calculated with COS-X)).... on


General Settings:
 Integral files         IntName         .... manual_330
 Hartree-Fock type      HFTyp           .... RHF
 Total Charge           Charge          ....   -1
 Multiplicity           Mult            ....    1
 Number of Electrons    NEL             ....  104
 Basis Dimension        Dim             ....  165
 Nuclear Repulsion      ENuc            ....    636.2430197810 Eh

Convergence Acceleration:
 DIIS                   CNVDIIS         .... on
   Start iteration      DIISMaxIt       ....    12
   Startup error        DIISStart       ....  0.200000
   # of expansion vecs  DIISMaxEq       ....     5
   Bias factor          DIISBfac        ....   1.050
   Max. coefficient     DIISMaxC        ....  10.000
 Newton-Raphson         CNVNR           .... off
 SOSCF                  CNVSOSCF        .... on
   Start iteration      SOSCFMaxIt      ....   150
   Startup grad/error   SOSCFStart      ....  0.003300
 Level Shifting         CNVShift        .... on
   Level shift para.    LevelShift      ....    0.2500
   Turn off err/grad.   ShiftErr        ....    0.0010
 Zerner damping         CNVZerner       .... off
 Static damping         CNVDamp         .... on
   Fraction old density DampFac         ....    0.7000
   Max. Damping (<1)    DampMax         ....    0.9800
   Min. Damping (>=0)   DampMin         ....    0.0000
   Turn off err/grad.   DampErr         ....    0.1000
 Fernandez-Rico         CNVRico         .... off

SCF Procedure:
 Maximum # iterations   MaxIter         ....   250
 SCF integral mode      SCFMode         .... Direct
   Integral package                     .... LIBINT
 Reset frequency        DirectResetFreq ....    20
 Integral Threshold     Thresh          ....  2.500e-11 Eh
 Primitive CutOff       TCut            ....  2.500e-12 Eh

Convergence Tolerance:
 Convergence Check Mode ConvCheckMode   .... Total+1el-Energy
 Convergence forced     ConvForced      .... 0
 Energy Change          TolE            ....  1.000e-08 Eh
 1-El. energy change                    ....  1.000e-05 Eh
 Orbital Gradient       TolG            ....  1.000e-05
 Orbital Rotation angle TolX            ....  1.000e-05
 DIIS Error             TolErr          ....  5.000e-07


Diagonalization of the overlap matrix:
[1631208294.285899] [comp0806:236218:0]            sys.c:618  UCX  ERROR shmget(size=2097152 flags=0xb80) for ucp_am_bufs failed: Operation not permitted, please check shared memory limits by 'ipcs -l'
[1631208294.289406] [comp0806:236224:0]            sys.c:618  UCX  ERROR shmget(size=2097152 flags=0xb80) for ucp_am_bufs failed: Operation not permitted, please check shared memory limits by 'ipcs -l'
Smallest eigenvalue                        ... 1.942e-03
Time for diagonalization                   ...    0.007 sec
Threshold for overlap eigenvalues          ... 1.000e-08
Number of eigenvalues below threshold      ... 0
Time for construction of square roots      ...    0.002 sec
Total time needed                          ...    0.009 sec

-------------------
DFT GRID GENERATION
-------------------

General Integration Accuracy     IntAcc      ...  4.340
Radial Grid Type                 RadialGrid  ... Gauss-Chebyshev
Angular Grid (max. acc.)         AngularGrid ... Lebedev-110
Angular grid pruning method      GridPruning ... 3 (G Style)
Weight generation scheme         WeightScheme... Becke
Basis function cutoff            BFCut       ...    1.0000e-11
Integration weight cutoff        WCut        ...    1.0000e-14
Grids for H and He will be reduced by one unit

# of grid points (after initial pruning)     ...  19550 (   0.0 sec)
# of grid points (after weights+screening)   ...  18291 (   0.0 sec)
nearest neighbour list constructed           ...    0.0 sec
Grid point re-assignment to atoms done       ...    0.0 sec
Grid point division into batches done        ...    0.0 sec
Reduced shell lists constructed in    0.1 sec

Total number of grid points                  ...    18291
Total number of batches                      ...      293
Average number of points per batch           ...       62
Average number of grid points per atom       ...     1219
Average number of shells per batch           ...    53.99 (71.98%)
Average number of basis functions per batch  ...   114.63 (69.47%)
Average number of large shells per batch     ...    45.08 (83.50%)
Average number of large basis fcns per batch ...    92.89 (81.04%)
Maximum spatial batch extension              ...  19.12, 19.57, 18.16 au
Average spatial batch extension              ...   0.74,  0.74,  0.72 au

Time for grid setup =    0.106 sec

------------------------------
INITIAL GUESS: MODEL POTENTIAL
------------------------------
Loading Hartree-Fock densities                     ... done
Calculating cut-offs                               ... done
Setting up the integral package                    ... done
Initializing the effective Hamiltonian             ... done
Starting the Coulomb interaction                   ... done (   0.0 sec)
Reading the grid                                   ... done
Mapping shells                                     ... done
Starting the XC term evaluation                    ... done (   0.0 sec)
  promolecular density results
     # of electrons  =    102.998269230
     EX              =   -201.601922939
     EC              =     -4.491868292
     EX+EC           =   -206.093791231
Transforming the Hamiltonian                       ... done (   0.0 sec)
Diagonalizing the Hamiltonian                      ... done (   0.0 sec)
Back transforming the eigenvectors                 ... done (   0.0 sec)
Now organizing SCF variables                       ... done
                      ------------------
                      INITIAL GUESS DONE (   0.3 sec)
                      ------------------
--------------------
COSX GRID GENERATION
--------------------

General Integration Accuracy     IntAcc      ...  3.340
Radial Grid Type                 RadialGrid  ... Gauss-Chebyshev
Angular Grid (max. acc.)         AngularGrid ... Lebedev-50
Angular grid pruning method      GridPruning ... 3 (G Style)
Weight generation scheme         WeightScheme... Becke
Basis function cutoff            BFCut       ...    1.0000e-11
Integration weight cutoff        WCut        ...    1.0000e-14
Grids for H and He will be reduced by one unit

# of grid points (after initial pruning)     ...   7284 (   0.0 sec)
# of grid points (after weights+screening)   ...   6814 (   0.0 sec)
nearest neighbour list constructed           ...    0.0 sec
Grid point re-assignment to atoms done       ...    0.0 sec
Grid point division into batches done        ...    0.0 sec
Reduced shell lists constructed in    0.0 sec

Total number of grid points                  ...     6814
Total number of batches                      ...      114
Average number of points per batch           ...       59
Average number of grid points per atom       ...      454
Average number of shells per batch           ...    56.40 (75.20%)
Average number of basis functions per batch  ...   120.73 (73.17%)
Average number of large shells per batch     ...    48.27 (85.58%)
Average number of large basis fcns per batch ...   100.00 (82.83%)
Maximum spatial batch extension              ...  11.71, 14.27, 15.00 au
Average spatial batch extension              ...   0.84,  0.85,  0.82 au

Overlap Fitting                  UseSFitting ... on
Constructing numerical overlap ... done (      0.0 sec)
Inverting numerical overlap    ... done (      0.0 sec)
Obtaining analytic overlap     ... done (      0.0 sec)
Final contraction and storage  ... done (      0.0 sec)


General Integration Accuracy     IntAcc      ...  3.670
Radial Grid Type                 RadialGrid  ... Gauss-Chebyshev
Angular Grid (max. acc.)         AngularGrid ... Lebedev-50
Angular grid pruning method      GridPruning ... 3 (G Style)
Weight generation scheme         WeightScheme... Becke
Basis function cutoff            BFCut       ...    1.0000e-11
Integration weight cutoff        WCut        ...    1.0000e-14
Grids for H and He will be reduced by one unit

# of grid points (after initial pruning)     ...   9160 (   0.0 sec)
# of grid points (after weights+screening)   ...   8540 (   0.0 sec)
nearest neighbour list constructed           ...    0.0 sec
Grid point re-assignment to atoms done       ...    0.0 sec
Grid point division into batches done        ...    0.0 sec
Reduced shell lists constructed in    0.0 sec

Total number of grid points                  ...     8540
Total number of batches                      ...      142
Average number of points per batch           ...       60
Average number of grid points per atom       ...      569
Average number of shells per batch           ...    56.27 (75.03%)
Average number of basis functions per batch  ...   119.84 (72.63%)
Average number of large shells per batch     ...    47.68 (84.73%)
Average number of large basis fcns per batch ...    98.43 (82.14%)
Maximum spatial batch extension              ...  14.50, 15.62, 15.13 au
Average spatial batch extension              ...   0.75,  0.79,  0.77 au

Overlap Fitting                  UseSFitting ... on
Constructing numerical overlap ... done (      0.0 sec)
Inverting numerical overlap    ... done (      0.0 sec)
Obtaining analytic overlap     ... done (      0.0 sec)
Final contraction and storage  ... done (      0.0 sec)


General Integration Accuracy     IntAcc      ...  4.010
Radial Grid Type                 RadialGrid  ... Gauss-Chebyshev
Angular Grid (max. acc.)         AngularGrid ... Lebedev-110
Angular grid pruning method      GridPruning ... 3 (G Style)
Weight generation scheme         WeightScheme... Becke
Basis function cutoff            BFCut       ...    1.0000e-11
Integration weight cutoff        WCut        ...    1.0000e-14
Grids for H and He will be reduced by one unit

# of grid points (after initial pruning)     ...  17048 (   0.0 sec)
# of grid points (after weights+screening)   ...  15981 (   0.0 sec)
nearest neighbour list constructed           ...    0.0 sec
Grid point re-assignment to atoms done       ...    0.0 sec
Grid point division into batches done        ...    0.0 sec
Reduced shell lists constructed in    0.0 sec

Total number of grid points                  ...    15981
Total number of batches                      ...      256
Average number of points per batch           ...       62
Average number of grid points per atom       ...     1065
Average number of shells per batch           ...    54.54 (72.72%)
Average number of basis functions per batch  ...   115.95 (70.28%)
Average number of large shells per batch     ...    45.91 (84.17%)
Average number of large basis fcns per batch ...    94.86 (81.81%)
Maximum spatial batch extension              ...  18.45, 18.66, 17.83 au
Average spatial batch extension              ...   0.77,  0.75,  0.75 au

Overlap Fitting                  UseSFitting ... on
Constructing numerical overlap ... done (      0.0 sec)
Inverting numerical overlap    ... done (      0.0 sec)
Obtaining analytic overlap     ... done (      0.0 sec)
Final contraction and storage  ... done (      0.0 sec)

Time for X-Grid setup             =    0.220 sec

--------------------
CPCM SOLVATION MODEL
--------------------
CPCM parameters:
  Epsilon                                         ...      20.7000
  Refrac                                          ...       1.3590
  Rsolv                                           ...       1.3000
  Surface type                                    ...    GEPOL SES
  Epsilon function type                           ...         CPCM
Radii:
 Radius for C  used is    3.7795 Bohr (=   2.0000 Ang.)
 Radius for Br used is    4.0818 Bohr (=   2.1600 Ang.)
 Radius for H  used is    2.4566 Bohr (=   1.3000 Ang.)
Calculating surface                               ...        done! (  0.0s)
GEPOL surface points                              ...          576
GEPOL Volume                                      ...    1122.5596
GEPOL Surface-area                                ...     618.6310
Calculating surface distance matrix               ...        done! (  0.0s)
Performing Cholesky decomposition & store         ...        done! (  0.0s)
Overall time for CPCM initialization              ...                 0.0s
--------------
SCF ITERATIONS
--------------
ITER       Energy         Delta-E        Max-DP      RMS-DP      [F,P]     Damp
               ***  Starting incremental Fock matrix formation  ***
  0  -5304.6272380459   0.000000000000 0.07180584  0.00195684  0.1580518 0.7000
  1  -5304.6924365343  -0.065198488423 0.05825381  0.00148432  0.0846457 0.7000
                               ***Turning on DIIS***
  2  -5304.7220059706  -0.029569436289 0.13038166  0.00286931  0.0340719 0.0000
  3  -5304.7655718676  -0.043565897041 0.03328099  0.00086856  0.0449307 0.0000
  4  -5304.7759649215  -0.010393053932 0.01162187  0.00027564  0.0073629 0.0000
                      *** Initiating the SOSCF procedure ***
                           *** Shutting down DIIS ***
                      *** Re-Reading the Fockian *** 
                      *** Removing any level shift *** 
ITER      Energy       Delta-E        Grad      Rot      Max-DP    RMS-DP
  5  -5304.77638580  -0.0004208826  0.000800  0.000800  0.001899  0.000084
               *** Restarting incremental Fock matrix formation ***
  6  -5304.77641335  -0.0000275466  0.000348  0.001298  0.001261  0.000056
  7  -5304.77641575  -0.0000024019  0.000264  0.000187  0.000821  0.000018
  8  -5304.77641846  -0.0000027087  0.000043  0.000140  0.000215  0.000006
  9  -5304.77641842   0.0000000410  0.000052  0.000080  0.000132  0.000002
 10  -5304.77641850  -0.0000000819  0.000006  0.000017  0.000041  0.000001
 11  -5304.77641853  -0.0000000264  0.000007  0.000005  0.000021  0.000000
                  ***Gradient check signals convergence***
              ***Rediagonalizing the Fockian in SOSCF/NRSCF***

               *****************************************************
               *                     SUCCESS                       *
               *           SCF CONVERGED AFTER  12 CYCLES          *
               *****************************************************

Setting up the final grid:

General Integration Accuracy     IntAcc      ...  4.670
Radial Grid Type                 RadialGrid  ... Gauss-Chebyshev
Angular Grid (max. acc.)         AngularGrid ... Lebedev-302
Angular grid pruning method      GridPruning ... 3 (G Style)
Weight generation scheme         WeightScheme... Becke
Basis function cutoff            BFCut       ...    1.0000e-11
Integration weight cutoff        WCut        ...    1.0000e-14
Grids for H and He will be reduced by one unit

# of grid points (after initial pruning)     ...  74626 (   0.0 sec)
# of grid points (after weights+screening)   ...  68908 (   0.1 sec)
nearest neighbour list constructed           ...    0.0 sec
Grid point re-assignment to atoms done       ...    0.0 sec
Grid point division into batches done        ...    0.3 sec
Reduced shell lists constructed in    0.4 sec

Total number of grid points                  ...    68908
Total number of batches                      ...     1083
Average number of points per batch           ...       63
Average number of grid points per atom       ...     4594
Average number of shells per batch           ...    51.66 (68.88%)
Average number of basis functions per batch  ...   109.06 (66.10%)
Average number of large shells per batch     ...    42.43 (82.12%)
Average number of large basis fcns per batch ...    86.81 (79.60%)
Maximum spatial batch extension              ...  17.00, 16.41, 15.86 au
Average spatial batch extension              ...   0.51,  0.51,  0.49 au

Final grid set up in    0.4 sec
Final integration                            ... done (   0.2 sec)
Change in XC energy                          ...     0.000386840
Integrated number of electrons               ...   103.999984211
Previous integrated no of electrons          ...   104.002170064
Old exchange energy                            =    -50.824384325 Eh
New exchange energy                            =    -50.824162740 Eh
Exchange energy change after final integration =      0.000221585 Eh
Total energy after final integration           =  -5304.775810053 Eh
Final COS-X integration done in                =     1.277 sec

----------------
TOTAL SCF ENERGY
----------------

Total Energy       :        -5304.77581005 Eh         -144350.28842 eV

Components:
Nuclear Repulsion  :          636.24301978 Eh           17313.05275 eV
Electronic Energy  :        -5941.01882983 Eh         -161663.34117 eV
One Electron Energy:        -8665.38411078 Eh         -235797.08935 eV
Two Electron Energy:         2724.36528094 Eh           74133.74818 eV
CPCM Dielectric    :           -0.08284237 Eh              -2.25426 eV

Virial components:
Potential Energy   :       -10602.55615902 Eh         -288510.22066 eV
Kinetic Energy     :         5297.78034897 Eh          144159.93224 eV
Virial Ratio       :            2.00132045


DFT components:
N(Alpha)           :       51.999992105679 electrons
N(Beta)            :       51.999992105679 electrons
N(Total)           :      103.999984211358 electrons
E(X)               :     -151.816651528013 Eh       
E(C)               :       -4.540582377155 Eh       
E(XC)              :     -156.357233905168 Eh       
DFET-embed. en.    :        0.000000000000 Eh       
CPCM Solvation Model Properties:
Surface-charge          :            0.97352070
Charge-correction       :           -0.00351623 Eh              -0.09568 eV
Free-energy (cav+disp)  :            0.00397244 Eh               0.10810 eV
Corrected G(solv)       :        -5304.77535384 Eh         -144350.27600 eV

---------------
SCF CONVERGENCE
---------------

  Last Energy change         ...    5.0999e-08  Tolerance :   1.0000e-08
  Last MAX-Density change    ...    3.9968e-15  Tolerance :   1.0000e-07
  Last RMS-Density change    ...    8.7925e-17  Tolerance :   5.0000e-09
  Last Orbital Gradient      ...    4.6192e-07  Tolerance :   1.0000e-05
  Last Orbital Rotation      ...    7.9515e-07  Tolerance :   1.0000e-05

             **** THE GBW FILE WAS UPDATED (manual_330.gbw) ****
             **** DENSITY FILE WAS UPDATED (manual_330.scfp) ****
             **** ENERGY FILE WAS UPDATED (manual_330.en.tmp) ****
             **** THE GBW FILE WAS UPDATED (manual_330.gbw) ****
             **** DENSITY FILE WAS UPDATED (manual_330.scfp) ****
----------------
ORBITAL ENERGIES
----------------

  NO   OCC          E(Eh)            E(eV) 
   0   2.0000    -483.107942    -13146.0354 
   1   2.0000    -483.103016    -13145.9014 
   2   2.0000     -62.543527     -1701.8959 
   3   2.0000     -62.538354     -1701.7551 
   4   2.0000     -56.332005     -1532.8718 
   5   2.0000     -56.330964     -1532.8435 
   6   2.0000     -56.330872     -1532.8409 
   7   2.0000     -56.326867     -1532.7320 
   8   2.0000     -56.325775     -1532.7023 
   9   2.0000     -56.325728     -1532.7010 
  10   2.0000     -10.285424      -279.8806 
  11   2.0000     -10.233661      -278.4721 
  12   2.0000     -10.210335      -277.8373 
  13   2.0000     -10.209690      -277.8198 
  14   2.0000      -8.687502      -236.3990 
  15   2.0000      -8.682265      -236.2564 
  16   2.0000      -6.497122      -176.7957 
  17   2.0000      -6.492084      -176.6586 
  18   2.0000      -6.492005      -176.6564 
  19   2.0000      -6.491471      -176.6419 
  20   2.0000      -6.487077      -176.5223 
  21   2.0000      -6.486988      -176.5199 
  22   2.0000      -2.583394       -70.2977 
  23   2.0000      -2.582051       -70.2612 
  24   2.0000      -2.581982       -70.2593 
  25   2.0000      -2.577943       -70.1494 
  26   2.0000      -2.577932       -70.1491 
  27   2.0000      -2.577837       -70.1465 
  28   2.0000      -2.576663       -70.1146 
  29   2.0000      -2.576590       -70.1126 
  30   2.0000      -2.573065       -70.0167 
  31   2.0000      -2.573043       -70.0161 
  32   2.0000      -0.822054       -22.3692 
  33   2.0000      -0.716811       -19.5054 
  34   2.0000      -0.696690       -18.9579 
  35   2.0000      -0.685076       -18.6419 
  36   2.0000      -0.658122       -17.9084 
  37   2.0000      -0.562000       -15.2928 
  38   2.0000      -0.465421       -12.6647 
  39   2.0000      -0.459725       -12.5097 
  40   2.0000      -0.441591       -12.0163 
  41   2.0000      -0.388124       -10.5614 
  42   2.0000      -0.373955       -10.1758 
  43   2.0000      -0.359786        -9.7903 
  44   2.0000      -0.341021        -9.2797 
  45   2.0000      -0.338832        -9.2201 
  46   2.0000      -0.290726        -7.9111 
  47   2.0000      -0.247212        -6.7270 
  48   2.0000      -0.244695        -6.6585 
  49   2.0000      -0.239248        -6.5103 
  50   2.0000      -0.238124        -6.4797 
  51   2.0000      -0.222175        -6.0457 
  52   0.0000      -0.022393        -0.6094 
  53   0.0000       0.084235         2.2922 
  54   0.0000       0.128374         3.4932 
  55   0.0000       0.133027         3.6198 
  56   0.0000       0.143352         3.9008 
  57   0.0000       0.145792         3.9672 
  58   0.0000       0.150233         4.0881 
  59   0.0000       0.181020         4.9258 
  60   0.0000       0.190515         5.1842 
  61   0.0000       0.198751         5.4083 
  62   0.0000       0.217393         5.9156 
  63   0.0000       0.261101         7.1049 
  64   0.0000       0.274054         7.4574 
  65   0.0000       0.396335        10.7848 
  66   0.0000       0.412780        11.2323 
  67   0.0000       0.417499        11.3607 
  68   0.0000       0.427279        11.6269 
  69   0.0000       0.440317        11.9816 
  70   0.0000       0.454687        12.3727 
  71   0.0000       0.485072        13.1995 
  72   0.0000       0.526290        14.3211 
  73   0.0000       0.546849        14.8805 
  74   0.0000       0.561713        15.2850 
  75   0.0000       0.573287        15.5999 
  76   0.0000       0.591734        16.1019 
  77   0.0000       0.593221        16.1424 
  78   0.0000       0.594875        16.1874 
  79   0.0000       0.598012        16.2727 
  80   0.0000       0.612337        16.6625 
  81   0.0000       0.617419        16.8008 
  82   0.0000       0.626092        17.0368 
  83   0.0000       0.637967        17.3600 
  84   0.0000       0.648701        17.6520 
  85   0.0000       0.663881        18.0651 
  86   0.0000       0.666617        18.1396 
  87   0.0000       0.683431        18.5971 
  88   0.0000       0.684494        18.6260 
  89   0.0000       0.699648        19.0384 
  90   0.0000       0.716554        19.4984 
  91   0.0000       0.725904        19.7529 
  92   0.0000       0.732572        19.9343 
  93   0.0000       0.746988        20.3266 
  94   0.0000       0.748022        20.3547 
  95   0.0000       0.758076        20.6283 
  96   0.0000       0.763545        20.7771 
  97   0.0000       0.776727        21.1358 
  98   0.0000       0.786180        21.3930 
  99   0.0000       0.795501        21.6467 
 100   0.0000       0.806439        21.9443 
 101   0.0000       0.877857        23.8877 
 102   0.0000       0.950189        25.8559 
 103   0.0000       0.979963        26.6662 
 104   0.0000       1.048461        28.5301 
 105   0.0000       1.087559        29.5940 
 106   0.0000       1.160081        31.5674 
 107   0.0000       1.212797        33.0019 
 108   0.0000       1.227998        33.4155 
 109   0.0000       1.277901        34.7734 
 110   0.0000       1.300206        35.3804 
 111   0.0000       1.338657        36.4267 
 112   0.0000       1.470330        40.0097 
 113   0.0000       1.534465        41.7549 
 114   0.0000       1.560598        42.4660 
 115   0.0000       1.568304        42.6757 
 116   0.0000       1.581695        43.0401 
 117   0.0000       1.715264        46.6747 
 118   0.0000       1.716926        46.7199 
 119   0.0000       1.769184        48.1419 
 120   0.0000       1.800606        48.9970 
 121   0.0000       1.821222        49.5580 
 122   0.0000       1.822503        49.5928 
 123   0.0000       1.830313        49.8053 
 124   0.0000       1.845040        50.2061 
 125   0.0000       1.865864        50.7727 
 126   0.0000       1.883080        51.2412 
 127   0.0000       1.913388        52.0659 
 128   0.0000       1.942859        52.8679 
 129   0.0000       1.976619        53.7865 
 130   0.0000       2.003106        54.5073 
 131   0.0000       2.027799        55.1792 
 132   0.0000       2.104069        57.2546 
 133   0.0000       2.139236        58.2116 
 134   0.0000       2.214652        60.2637 
 135   0.0000       2.247846        61.1670 
 136   0.0000       2.263985        61.6062 
 137   0.0000       2.310534        62.8728 
 138   0.0000       2.364549        64.3427 
 139   0.0000       2.436536        66.3015 
 140   0.0000       2.451610        66.7117 
 141   0.0000       2.497222        67.9529 
 142   0.0000       2.576598        70.1128 
 143   0.0000       2.585579        70.3572 
 144   0.0000       2.636740        71.7493 
 145   0.0000       2.689617        73.1882 
 146   0.0000       2.846776        77.4647 
 147   0.0000       2.848528        77.5124 
 148   0.0000       2.879469        78.3543 
 149   0.0000       2.947962        80.2181 
 150   0.0000       2.965546        80.6966 
 151   0.0000       2.975204        80.9594 
 152   0.0000       3.054082        83.1058 
 153   0.0000       3.106031        84.5194 
 154   0.0000       3.113465        84.7217 
 155   0.0000       3.528587        96.0177 
 156   0.0000       3.528973        96.0282 
 157   0.0000       3.544311        96.4456 
 158   0.0000       3.544872        96.4609 
 159   0.0000       3.573001        97.2263 
 160   0.0000       3.585038        97.5538 
 161   0.0000       3.595782        97.8462 
 162   0.0000       3.612151        98.2916 
 163   0.0000       3.702985       100.7633 
 164   0.0000       3.835817       104.3779 

                    ********************************
                    * MULLIKEN POPULATION ANALYSIS *
                    ********************************

-----------------------
MULLIKEN ATOMIC CHARGES
-----------------------
   0 C :   -0.056237
   1 C :   -0.173407
   2 C :   -0.047668
   3 C :    0.016048
   4 Br:   -0.631963
   5 H :    0.036559
   6 H :    0.043268
   7 H :    0.044896
   8 H :    0.066464
   9 H :    0.042232
  10 H :    0.042790
  11 H :    0.033584
  12 H :    0.111487
  13 H :    0.111833
  14 Br:   -0.639887
Sum of atomic charges:   -1.0000000

--------------------------------
MULLIKEN REDUCED ORBITAL CHARGES
--------------------------------
  0 C s       :     3.035105  s :     3.035105
      pz      :     1.030592  p :     2.993916
      px      :     0.952847
      py      :     1.010477
      dz2     :     0.004983  d :     0.027216
      dxz     :     0.002962
      dyz     :     0.007726
      dx2y2   :     0.003607
      dxy     :     0.007938
  1 C s       :     3.122471  s :     3.122471
      pz      :     1.038796  p :     3.005895
      px      :     0.976800
      py      :     0.990299
      dz2     :     0.009033  d :     0.045040
      dxz     :     0.006124
      dyz     :     0.009882
      dx2y2   :     0.007886
      dxy     :     0.012115
  2 C s       :     3.034078  s :     3.034078
      pz      :     0.996222  p :     2.986421
      px      :     1.010808
      py      :     0.979391
      dz2     :     0.007470  d :     0.027169
      dxz     :     0.002400
      dyz     :     0.006813
      dx2y2   :     0.002483
      dxy     :     0.008002
  3 C s       :     3.228512  s :     3.228512
      pz      :     0.728467  p :     2.726069
      px      :     1.012416
      py      :     0.985186
      dz2     :     0.005812  d :     0.029370
      dxz     :     0.003816
      dyz     :     0.004816
      dx2y2   :     0.009056
      dxy     :     0.005870
  4 Brs       :     7.985447  s :     7.985447
      pz      :     5.703474  p :    17.636028
      px      :     5.959378
      py      :     5.973176
      dz2     :     2.005185  d :    10.010488
      dxz     :     2.002372
      dyz     :     2.002196
      dx2y2   :     2.000168
      dxy     :     2.000567
  5 H s       :     0.938502  s :     0.938502
      pz      :     0.012222  p :     0.024939
      px      :     0.004467
      py      :     0.008250
  6 H s       :     0.933023  s :     0.933023
      pz      :     0.005253  p :     0.023709
      px      :     0.008998
      py      :     0.009458
  7 H s       :     0.931532  s :     0.931532
      pz      :     0.010514  p :     0.023572
      px      :     0.004743
      py      :     0.008315
  8 H s       :     0.910113  s :     0.910113
      pz      :     0.012383  p :     0.023423
      px      :     0.004080
      py      :     0.006960
  9 H s       :     0.934090  s :     0.934090
      pz      :     0.004926  p :     0.023678
      px      :     0.012026
      py      :     0.006726
 10 H s       :     0.933434  s :     0.933434
      pz      :     0.004717  p :     0.023775
      px      :     0.009605
      py      :     0.009453
 11 H s       :     0.941209  s :     0.941209
      pz      :     0.011643  p :     0.025207
      px      :     0.005097
      py      :     0.008467
 12 H s       :     0.863992  s :     0.863992
      pz      :     0.005268  p :     0.024520
      px      :     0.015061
      py      :     0.004191
 13 H s       :     0.863541  s :     0.863541
      pz      :     0.005388  p :     0.024626
      px      :     0.004397
      py      :     0.014842
 14 Brs       :     7.987643  s :     7.987643
      pz      :     5.778744  p :    17.641108
      px      :     5.964664
      py      :     5.897701
      dz2     :     2.004668  d :    10.011136
      dxz     :     2.001391
      dyz     :     2.003089
      dx2y2   :     2.001247
      dxy     :     2.000740


                     *******************************
                     * LOEWDIN POPULATION ANALYSIS *
                     *******************************

----------------------
LOEWDIN ATOMIC CHARGES
----------------------
   0 C :   -0.070332
   1 C :   -0.077621
   2 C :   -0.069525
   3 C :    0.043157
   4 Br:   -0.529042
   5 H :    0.013345
   6 H :    0.028593
   7 H :    0.029249
   8 H :    0.036696
   9 H :    0.028956
  10 H :    0.028360
  11 H :    0.010972
  12 H :    0.025219
  13 H :    0.024232
  14 Br:   -0.522260

-------------------------------
LOEWDIN REDUCED ORBITAL CHARGES
-------------------------------
  0 C s       :     2.846199  s :     2.846199
      pz      :     1.075653  p :     3.153579
      px      :     1.018114
      py      :     1.059812
      dz2     :     0.013470  d :     0.070553
      dxz     :     0.006647
      dyz     :     0.019991
      dx2y2   :     0.009427
      dxy     :     0.021018
  1 C s       :     2.843558  s :     2.843558
      pz      :     1.066164  p :     3.127300
      px      :     1.026534
      py      :     1.034602
      dz2     :     0.021335  d :     0.106763
      dxz     :     0.012312
      dyz     :     0.025013
      dx2y2   :     0.017247
      dxy     :     0.030857
  2 C s       :     2.846405  s :     2.846405
      pz      :     1.049839  p :     3.152507
      px      :     1.059603
      py      :     1.043064
      dz2     :     0.018030  d :     0.070614
      dxz     :     0.005899
      dyz     :     0.019317
      dx2y2   :     0.006260
      dxy     :     0.021107
  3 C s       :     2.981089  s :     2.981089
      pz      :     0.781162  p :     2.908588
      px      :     1.079278
      py      :     1.048148
      dz2     :     0.011900  d :     0.067166
      dxz     :     0.008212
      dyz     :     0.009286
      dx2y2   :     0.022270
      dxy     :     0.015498
  4 Brs       :     7.945228  s :     7.945228
      pz      :     5.660335  p :    17.571997
      px      :     5.949144
      py      :     5.962518
      dz2     :     2.006133  d :    10.011817
      dxz     :     2.002552
      dyz     :     2.002340
      dx2y2   :     2.000181
      dxy     :     2.000612
  5 H s       :     0.914985  s :     0.914985
      pz      :     0.034783  p :     0.071670
      px      :     0.014040
      py      :     0.022847
  6 H s       :     0.905071  s :     0.905071
      pz      :     0.013431  p :     0.066336
      px      :     0.026609
      py      :     0.026295
  7 H s       :     0.904567  s :     0.904567
      pz      :     0.029001  p :     0.066183
      px      :     0.014325
      py      :     0.022857
  8 H s       :     0.891267  s :     0.891267
      pz      :     0.036593  p :     0.072037
      px      :     0.013797
      py      :     0.021646
  9 H s       :     0.904960  s :     0.904960
      pz      :     0.014219  p :     0.066084
      px      :     0.033198
      py      :     0.018667
 10 H s       :     0.905273  s :     0.905273
      pz      :     0.013784  p :     0.066367
      px      :     0.025991
      py      :     0.026591
 11 H s       :     0.916413  s :     0.916413
      pz      :     0.035244  p :     0.072615
      px      :     0.013158
      py      :     0.024213
 12 H s       :     0.895921  s :     0.895921
      pz      :     0.017511  p :     0.078860
      px      :     0.048038
      py      :     0.013311
 13 H s       :     0.896390  s :     0.896390
      pz      :     0.017429  p :     0.079378
      px      :     0.014237
      py      :     0.047712
 14 Brs       :     7.945100  s :     7.945100
      pz      :     5.731817  p :    17.565187
      px      :     5.954141
      py      :     5.879230
      dz2     :     2.005184  d :    10.011972
      dxz     :     2.001323
      dyz     :     2.003512
      dx2y2   :     2.001261
      dxy     :     2.000693


                      *****************************
                      * MAYER POPULATION ANALYSIS *
                      *****************************

  NA   - Mulliken gross atomic population
  ZA   - Total nuclear charge
  QA   - Mulliken gross atomic charge
  VA   - Mayer's total valence
  BVA  - Mayer's bonded valence
  FA   - Mayer's free valence

  ATOM       NA         ZA         QA         VA         BVA        FA
  0 C      6.0562     6.0000    -0.0562     3.9232     3.9232    -0.0000
  1 C      6.1734     6.0000    -0.1734     4.0721     4.0721    -0.0000
  2 C      6.0477     6.0000    -0.0477     3.9181     3.9181    -0.0000
  3 C      5.9840     6.0000     0.0160     3.7721     3.7721    -0.0000
  4 Br    35.6320    35.0000    -0.6320     0.6355     0.6355     0.0000
  5 H      0.9634     1.0000     0.0366     1.0308     1.0308     0.0000
  6 H      0.9567     1.0000     0.0433     0.9873     0.9873    -0.0000
  7 H      0.9551     1.0000     0.0449     0.9850     0.9850     0.0000
  8 H      0.9335     1.0000     0.0665     0.9998     0.9998    -0.0000
  9 H      0.9578     1.0000     0.0422     0.9855     0.9855    -0.0000
 10 H      0.9572     1.0000     0.0428     0.9875     0.9875    -0.0000
 11 H      0.9664     1.0000     0.0336     1.0332     1.0332     0.0000
 12 H      0.8885     1.0000     0.1115     0.9930     0.9930    -0.0000
 13 H      0.8882     1.0000     0.1118     0.9936     0.9936    -0.0000
 14 Br    35.6399    35.0000    -0.6399     0.6564     0.6564    -0.0000

  Mayer bond orders larger than 0.100000
B(  0-C ,  1-C ) :   1.0508 B(  0-C ,  5-H ) :   0.9583 B(  0-C ,  6-H ) :   0.9662 
B(  0-C ,  7-H ) :   0.9663 B(  1-C ,  2-C ) :   1.0487 B(  1-C ,  3-C ) :   1.0311 
B(  1-C ,  8-H ) :   0.9087 B(  2-C ,  9-H ) :   0.9664 B(  2-C , 10-H ) :   0.9675 
B(  2-C , 11-H ) :   0.9565 B(  3-C ,  4-Br) :   0.4629 B(  3-C , 12-H ) :   0.9481 
B(  3-C , 13-H ) :   0.9478 B(  3-C , 14-Br) :   0.3915 


------------------
HIRSHFELD ANALYSIS
------------------

Total integrated alpha density =     52.001085032
Total integrated beta density  =     52.001085032

  ATOM     CHARGE      SPIN    
   0 C   -0.083438    0.000000
   1 C   -0.008409    0.000000
   2 C   -0.082854    0.000000
   3 C    0.053775    0.000000
   4 Br  -0.557716    0.000000
   5 H    0.006151    0.000000
   6 H    0.025254    0.000000
   7 H    0.025071    0.000000
   8 H    0.021681    0.000000
   9 H    0.024971    0.000000
  10 H    0.025988    0.000000
  11 H    0.004610    0.000000
  12 H    0.036290    0.000000
  13 H    0.036360    0.000000
  14 Br  -0.529904    0.000000

  TOTAL  -1.002170    0.000000

-------
TIMINGS
-------

Total SCF time: 0 days 0 hours 0 min 16 sec 

Total time                  ....      16.395 sec
Sum of individual times     ....      16.183 sec  ( 98.7%)

Fock matrix formation       ....      15.140 sec  ( 92.3%)
  Split-RI-J                ....       2.161 sec  ( 14.3% of F)
  Chain of spheres X        ....       8.838 sec  ( 58.4% of F)
  COS-X 1 center corr.      ....       0.000 sec  (  0.0% of F)
  XC integration            ....       0.921 sec  (  6.1% of F)
    Basis function eval.    ....       0.344 sec  ( 37.4% of XC)
    Density eval.           ....       0.170 sec  ( 18.4% of XC)
    XC-Functional eval.     ....       0.070 sec  (  7.6% of XC)
    XC-Potential eval.      ....       0.245 sec  ( 26.6% of XC)
Diagonalization             ....       0.027 sec  (  0.2%)
Density matrix formation    ....       0.006 sec  (  0.0%)
Population analysis         ....       0.060 sec  (  0.4%)
Initial guess               ....       0.169 sec  (  1.0%)
Orbital Transformation      ....       0.000 sec  (  0.0%)
Orbital Orthonormalization  ....       0.000 sec  (  0.0%)
DIIS solution               ....       0.007 sec  (  0.0%)
SOSCF solution              ....       0.016 sec  (  0.1%)
Grid generation             ....       0.757 sec  (  4.6%)


-------------------------------------------------------------------------------
                          DFT DISPERSION CORRECTION                            
                                                                               
                              DFTD3 V3.1  Rev 1                                
                          USING Becke-Johnson damping                          
-------------------------------------------------------------------------------
The PBE0 functional is recognized
Active option DFTDOPT                   ...         4   

molecular C6(AA) [au] = 3456.159826 


            DFT-D V3
 parameters
 s6 scaling factor         :     1.0000 
 a1 scaling factor         :     0.4145 
 s8 scaling factor         :     1.2177 
 a2 scaling factor         :     4.8593 
 ad hoc parameters k1-k3   :    16.0000     1.3333    -4.0000 

 Edisp/kcal,au: -8.591477385406  -0.013691389252 
 E6   /kcal   :  -5.186279135 
 E8   /kcal   :  -3.405198250 
 % E8         :  39.634606456 

-------------------------   ----------------
Dispersion correction           -0.013691389
-------------------------   ----------------


-------------------------   --------------------
FINAL SINGLE POINT ENERGY     -5304.789501441935
-------------------------   --------------------

[1631208311.726126] [comp0806:236344:0]            sys.c:618  UCX  ERROR shmget(size=2097152 flags=0xfb0) for mm_recv_desc failed: Operation not permitted, please check shared memory limits by 'ipcs -l'
[1631208311.754157] [comp0806:236346:0]            sys.c:618  UCX  ERROR shmget(size=2097152 flags=0xfb0) for mm_recv_desc failed: Operation not permitted, please check shared memory limits by 'ipcs -l'
[1631208311.761400] [comp0806:236345:0]            sys.c:618  UCX  ERROR shmget(size=2097152 flags=0xfb0) for mm_recv_desc failed: Operation not permitted, please check shared memory limits by 'ipcs -l'
[1631208311.761699] [comp0806:236347:0]            sys.c:618  UCX  ERROR shmget(size=2097152 flags=0xfb0) for mm_recv_desc failed: Operation not permitted, please check shared memory limits by 'ipcs -l'
[1631208311.770084] [comp0806:236344:0]            sys.c:618  UCX  ERROR shmget(size=2097152 flags=0xb80) for ucp_am_bufs failed: Operation not permitted, please check shared memory limits by 'ipcs -l'
[1631208311.770879] [comp0806:236345:0]            sys.c:618  UCX  ERROR shmget(size=2097152 flags=0xb80) for ucp_am_bufs failed: Operation not permitted, please check shared memory limits by 'ipcs -l'


           ************************************************************
           *        Program running with 4 parallel MPI-processes     *
           *              working on a common directory               *
           ************************************************************
[1631208311.777615] [comp0806:236346:0]            sys.c:618  UCX  ERROR shmget(size=2097152 flags=0xb80) for ucp_am_bufs failed: Operation not permitted, please check shared memory limits by 'ipcs -l'
------------------------------------------------------------------------------
                         ORCA SCF GRADIENT CALCULATION
------------------------------------------------------------------------------

[1631208311.928686] [comp0806:236347:0]            sys.c:618  UCX  ERROR shmget(size=2097152 flags=0xb80) for ucp_am_bufs failed: Operation not permitted, please check shared memory limits by 'ipcs -l'
Gradient of the Kohn-Sham DFT energy:
Kohn-Sham wavefunction type      ... RKS
Hartree-Fock exchange scaling    ...    0.250
Number of operators              ...    1
Number of atoms                  ...   15
Basis set dimensions             ...  165
Integral neglect threshold       ... 2.5e-11
Integral primitive cutoff        ... 2.5e-12

Nuclear repulsion gradient       ... done
One Electron Gradient            ... done
Pre-screening matrix             ... done
RI-J gradient                    ... done
COSX-gradient                    ... done
Exchange-correlation gradient    ... done
Dispersion correction            ... done

------------------
CARTESIAN GRADIENT
------------------

   1   C   :   -0.000538007   -0.001224528   -0.001086024
   2   C   :   -0.000916743   -0.001418013   -0.000868127
   3   C   :   -0.000509392   -0.001222015   -0.001272602
   4   C   :   -0.000399792    0.001363050    0.003104043
   5   Br  :    0.000803829   -0.000906339   -0.003854988
   6   H   :   -0.001585023   -0.000488221   -0.000231882
   7   H   :   -0.000051630   -0.000046910    0.000022094
   8   H   :   -0.000070640    0.000032598    0.000063154
   9   H   :   -0.000011069    0.000015253   -0.000141309
  10   H   :   -0.000017417   -0.000031260   -0.000076718
  11   H   :   -0.000012859   -0.000032506   -0.000017065
  12   H   :   -0.000430709   -0.001670558    0.000404271
  13   H   :    0.000239623   -0.001491017   -0.003641781
  14   H   :    0.000302288   -0.001629267   -0.003746853
  15   Br  :    0.002699708    0.008306578    0.010521726

Difference to translation invariance:
           :   -0.0004978319   -0.0004431556   -0.0008220610

Norm of the cartesian gradient     ...    0.0162246004
RMS gradient                       ...    0.0024186206
MAX gradient                       ...    0.0105217255

-------
TIMINGS
-------

Total SCF gradient time            ...        3.289 sec

One electron gradient       ....       0.033 sec  (  1.0%)
Prescreening matrices       ....       0.119 sec  (  3.6%)
RI-J Coulomb gradient       ....       0.318 sec  (  9.7%)
COSX gradient               ....       1.287 sec  ( 39.1%)
XC gradient                 ....       0.868 sec  ( 26.4%)
CPCM gradient               ....       0.325 sec  (  9.9%)
   A-Matrix (El+Nuc)        ....       0.010 sec  (  0.3%)
   Potential                ....       0.315 sec  (  9.6%)
[1631208315.989291] [comp0806:236377:0]            sys.c:618  UCX  ERROR shmget(size=2097152 flags=0xfb0) for mm_recv_desc failed: Operation not permitted, please check shared memory limits by 'ipcs -l'
[1631208315.989357] [comp0806:236379:0]            sys.c:618  UCX  ERROR shmget(size=2097152 flags=0xfb0) for mm_recv_desc failed: Operation not permitted, please check shared memory limits by 'ipcs -l'
[1631208316.018044] [comp0806:236378:0]            sys.c:618  UCX  ERROR shmget(size=2097152 flags=0xfb0) for mm_recv_desc failed: Operation not permitted, please check shared memory limits by 'ipcs -l'
[1631208316.019012] [comp0806:236380:0]            sys.c:618  UCX  ERROR shmget(size=2097152 flags=0xfb0) for mm_recv_desc failed: Operation not permitted, please check shared memory limits by 'ipcs -l'
[1631208316.026947] [comp0806:236377:0]            sys.c:618  UCX  ERROR shmget(size=2097152 flags=0xb80) for ucp_am_bufs failed: Operation not permitted, please check shared memory limits by 'ipcs -l'
[1631208316.027380] [comp0806:236379:0]            sys.c:618  UCX  ERROR shmget(size=2097152 flags=0xb80) for ucp_am_bufs failed: Operation not permitted, please check shared memory limits by 'ipcs -l'


           ************************************************************
           *        Program running with 4 parallel MPI-processes     *
           *              working on a common directory               *
           ************************************************************
[1631208316.048884] [comp0806:236378:0]            sys.c:618  UCX  ERROR shmget(size=2097152 flags=0xb80) for ucp_am_bufs failed: Operation not permitted, please check shared memory limits by 'ipcs -l'

-------------------------------------------------------------------------------
                               ORCA SCF HESSIAN
-------------------------------------------------------------------------------

Hessian of the Kohn-Sham DFT energy:
Kohn-Sham wavefunction type                      ... RKS
Hartree-Fock exchange scaling                    ...    0.250
Number of operators                              ...    1
Number of atoms                                  ...   15
Basis set dimensions                             ...  165
Integral neglect threshold                       ... 2.5e-11
Integral primitive cutoff                        ... 2.5e-12

Setting up DFT Hessian calculations              ... 
[1631208316.050959] [comp0806:236380:0]            sys.c:618  UCX  ERROR shmget(size=2097152 flags=0xb80) for ucp_am_bufs failed: Operation not permitted, please check shared memory limits by 'ipcs -l'
Electron density on the grid                     ... found on disk
Electron density on the final grid               ... found on disk
Building xc-kernel on the grid                   ... done   (      0.0 sec)
Building xc-kernel on the final grid             ... done   (      0.0 sec)
                                                     done   (      0.1 sec)

Nuclear repulsion Hessian                        ... done   (      0.0 sec)

----------------------------------------------
Forming right-hand sides of CP-SCF equations     ...
----------------------------------------------
One electron integral derivatives                ... done   (      8.3 sec)
Transforming the overlap derivative matrices     ... done   (      0.0 sec)
Adding tr(S(x)F(y) C-PCM term to the hessian     ... done   (      1.2 sec)
Making the Q(x) pseudodensities                  ... [1631208326.082277] [comp0806:236379:0]            sys.c:618  UCX  ERROR shmget(size=6291456 flags=0xfb0) for mm_recv_desc failed: Operation not permitted, please check shared memory limits by 'ipcs -l'
done   (      0.0 sec)
Adding the E*S(x)*S(y) terms to the Hessian      ... done   (      0.0 sec)
Calculating energy weighted overlap derivatives  ... done   (      0.0 sec)
Two electron integral derivatives (RI)           ... done   (      4.7 sec)
Exchange-correlation integral derivatives        ... done   (      9.8 sec)
tr(F(y)Q(x)) contribution to the Hessian         ... done   (      0.0 sec)
Response fock operator R(S(x)) (RIJCOSX)         ... done   (      6.0 sec)
XC Response fock operator R(S(x))                ... done   (      3.5 sec)
tr(F(y)S(x)) contribution to the Hessian         ... done   (      0.0 sec)
Transforming and finalizing RHSs                 ... done   (      0.0 sec)

----------------------------------------------
Solving the CP-SCF equations (RIJCOSX)           ...
----------------------------------------------
     CP-SCF ITERATION   0: 
     CP-SCF ITERATION   1:      0.000788660050
     CP-SCF ITERATION   2:      0.000113450598
     CP-SCF ITERATION   3:      0.000009240444
     CP-SCF ITERATION   4:      0.000000470130
     CP-SCF ITERATION   5:      0.000000036581
[...]
     16      -0.007015  -0.117948  -0.009702  -0.076118   0.420611   0.378174
     17       0.058497   0.096732   0.040072   0.072037  -0.259046  -0.256980
     18       0.242848   0.042121  -0.130097  -0.162886   0.076936   0.194878
     19      -0.312893  -0.034837   0.102314   0.157391  -0.140365  -0.217991
     20      -0.122900  -0.038953  -0.402607  -0.362270  -0.413722  -0.086589
     21       0.337791   0.024039  -0.305910  -0.330722  -0.221873   0.002804
     22      -0.053172  -0.121134  -0.260195  -0.295529   0.156910   0.324340
     23      -0.177227  -0.121648  -0.095813  -0.113735   0.220834   0.268570
     24      -0.080730   0.046085  -0.056412  -0.008364  -0.029730   0.078984
     25      -0.022757   0.027883   0.048302   0.000988   0.017230   0.046366
     26       0.008710  -0.022549  -0.031842   0.036705   0.007298  -0.049141
     27       0.049998  -0.028800   0.220271  -0.102607  -0.154657   0.138374
     28       0.184202  -0.039044   0.420869  -0.253126  -0.236267   0.181511
     29      -0.277207  -0.156451   0.036986   0.231516  -0.269584   0.347368
     30      -0.157913  -0.028029  -0.334653   0.234184   0.153780  -0.127937
     31       0.063151   0.026751   0.315210  -0.249716  -0.090049   0.077772
     32      -0.338100  -0.068526   0.216493  -0.352437   0.184992  -0.263595
     33       0.026904  -0.142275   0.012910   0.326733  -0.397862   0.456322
     34       0.353717   0.117274  -0.266033   0.225148   0.038757  -0.028933
     35      -0.154286  -0.042020   0.114191  -0.123591   0.002912  -0.015628
     36       0.017712  -0.095643  -0.004444   0.012873  -0.004997  -0.007933
     37       0.132325  -0.606387  -0.007834   0.045251  -0.003350  -0.109884
     38      -0.051786   0.194472  -0.002452  -0.011458  -0.005559   0.039243
     39       0.159826  -0.642517   0.016942   0.033161   0.027586  -0.120488
     40       0.026238  -0.108160   0.007287   0.005196   0.013788  -0.011119
     41       0.000084  -0.029361   0.004500   0.000425   0.005559  -0.006333
     42       0.000109  -0.000045   0.000015   0.000004   0.000091  -0.000038
     43      -0.000013   0.000045  -0.000013  -0.000003  -0.000068   0.000011
     44      -0.000255   0.000202   0.000031  -0.000152  -0.000018   0.000039
                 36         37         38         39         40         41    
      0      -0.033952   0.030776   0.002708   0.001111   0.017321   0.035583
      1       0.015920  -0.014662   0.003649   0.002219   0.058039   0.061156
      2       0.002778  -0.002814   0.007582  -0.001900  -0.071205   0.057837
      3       0.001510  -0.000724  -0.003106  -0.001050   0.000182   0.000193
      4      -0.001609  -0.000132  -0.044277   0.000789  -0.000689   0.003809
      5       0.000268   0.001361  -0.068331   0.001488  -0.003076   0.005162
      6      -0.010379  -0.011680  -0.000514  -0.089368   0.002749  -0.001881
      7       0.023715   0.026501   0.005876  -0.007136   0.000702  -0.014701
      8      -0.021839  -0.025019   0.005987   0.025955   0.000070  -0.013131
      9      -0.000035  -0.000149  -0.000597   0.000435  -0.000268  -0.000196
     10      -0.000001  -0.000198  -0.000790   0.000144  -0.000510   0.000046
     11      -0.000004   0.000032  -0.000782  -0.000155   0.000223   0.000119
     12      -0.000001   0.000016   0.000119   0.000001   0.000002  -0.000006
     13       0.000002   0.000006   0.000074   0.000000   0.000003  -0.000008
     14       0.000000  -0.000024  -0.000164   0.000001   0.000001   0.000005
     15       0.002158  -0.003097  -0.001502   0.000391  -0.001892   0.017304
     16      -0.225365   0.203792  -0.038592   0.001222   0.163862  -0.407515
     17      -0.352047   0.317419  -0.060268   0.001926   0.227678  -0.634865
     18       0.290370  -0.259352  -0.027881  -0.013633  -0.386107  -0.412586
     19       0.305737  -0.271531  -0.030955  -0.015895  -0.393196  -0.424681
     20      -0.027760   0.024815   0.005503   0.001515   0.025557   0.043911
     21       0.097319  -0.089565  -0.007309   0.005841   0.182432  -0.028404
     22      -0.265769   0.238912   0.028001  -0.013449  -0.463212   0.096015
     23       0.345683  -0.309012  -0.033069   0.018301   0.598603  -0.104822
     24      -0.001009   0.000267   0.038833   0.000812   0.000328  -0.001461
     25       0.004669  -0.002571   0.534192  -0.008959   0.016173  -0.037928
     26       0.005003  -0.004912   0.830378  -0.014872   0.027191  -0.057013
     27       0.371780   0.414119   0.032298   0.651675  -0.017538  -0.051981
     28      -0.170673  -0.191787  -0.011639  -0.312770   0.008133   0.021029
     29      -0.076486  -0.082801  -0.006085  -0.128012   0.003281   0.008304
     30      -0.262988  -0.290884  -0.024248   0.436064  -0.015958   0.067347
     31      -0.275747  -0.306166  -0.021832   0.480113  -0.018986   0.069287
     32       0.020978   0.024068   0.003097  -0.034403   0.001929  -0.006355
     33       0.011754   0.013795  -0.002745  -0.020871   0.000944   0.005738
     34       0.174832   0.195246  -0.038839  -0.084691  -0.001374   0.085729
     35       0.308138   0.346938  -0.064623  -0.147036  -0.001480   0.153644
     36       0.000296  -0.005846   0.001954  -0.002480   0.002588  -0.000360
     37      -0.000442   0.003382  -0.002204   0.001926  -0.001180  -0.000140
     38      -0.000001  -0.002008   0.000290  -0.001023   0.000576  -0.000370
     39      -0.000116   0.003659  -0.000995   0.000701  -0.002566  -0.000214
     40       0.000569  -0.005491  -0.000953  -0.001042   0.004194  -0.000435
     41      -0.000028   0.001976  -0.001201   0.000798  -0.001744   0.000691
     42       0.000015  -0.000019   0.000002   0.000005  -0.000007   0.000044
     43      -0.000013  -0.000018   0.000006   0.000012  -0.000004  -0.000002
     44       0.000006   0.000006   0.000010   0.000002  -0.000001   0.000011
                  42         43         44    
      0      -0.007416  -0.000584  -0.000293
      1      -0.012036   0.000545  -0.000044
      2      -0.012272  -0.000330   0.000193
      3      -0.000563  -0.002412   0.000254
      4      -0.005425  -0.002549  -0.000144
      5      -0.008327   0.000464  -0.000068
      6      -0.011866   0.000427   0.000077
      7      -0.068742  -0.000560   0.000239
      8      -0.058560   0.000263  -0.000214
      9      -0.000054   0.047805   0.070180
     10       0.000020   0.042845  -0.068723
     11      -0.000260  -0.006372   0.030333
     12       0.000010  -0.000003  -0.000095
     13       0.000010  -0.000081   0.000094
     14      -0.000004  -0.000187  -0.000021
     15      -0.005599   0.001100  -0.000636
     16       0.085849  -0.000823  -0.000433
     17       0.131454  -0.001006  -0.000446
     18       0.084280   0.001563   0.000027
     19       0.085589   0.000039   0.000676
     20      -0.008753  -0.000253  -0.000269
     21       0.008100   0.002619  -0.001811
     22      -0.022893  -0.005070   0.000991
     23       0.026754   0.005686  -0.001014
     24       0.004143   0.000551   0.000108
     25       0.055748   0.001407   0.001248
     26       0.088916   0.001242   0.001295
     27      -0.217814  -0.005978  -0.000423
     28       0.092186   0.003387   0.001386
     29       0.035158   0.000261  -0.000705
     30       0.333705   0.001139  -0.000580
     31       0.351278   0.002260   0.000054
     32      -0.033546  -0.001019  -0.000076
     33       0.029782  -0.000101   0.000123
     34       0.383320   0.000633   0.000424
     35       0.706288  -0.001049   0.000205
     36       0.002344  -0.701927  -0.650610
     37      -0.000769   0.145689   0.127131
     38       0.000223  -0.141528  -0.129627
     39      -0.000377   0.165325  -0.169182
     40       0.001857  -0.624805   0.673982
     41      -0.000466   0.209816  -0.224243
     42      -0.000029  -0.000038  -0.000078
     43      -0.000076   0.000046   0.000068
     44       0.000008   0.000175  -0.000049


-----------
IR SPECTRUM
-----------

 Mode    freq (cm**-1)   T**2         TX         TY         TZ
-------------------------------------------------------------------
   7:        34.35    1.933764  (  0.926595  -0.872111   0.560899)
   8:        99.29    3.704842  ( -1.478282  -1.188216   0.328126)
   9:       128.86   11.171116  ( -2.604230  -2.091316   0.124491)
  10:       145.75    6.079828  ( -1.005807   2.165072  -0.616964)
  11:       164.89    5.746884  (  0.063714  -0.806037  -2.256796)
  12:       236.28    1.038820  ( -0.505342   0.619921  -0.631780)
  13:       250.19   12.478018  ( -0.073204   1.508321   3.193372)
  14:       363.33    6.228270  (  1.317811   0.820103  -1.954246)
  15:       395.29    1.612277  (  0.749528  -0.561028   0.857748)
  16:       500.81  168.715764  (  0.574134  -5.025854 -11.963566)
  17:       819.81   17.353715  ( -2.665979  -3.139093   0.626392)
  18:       846.19    3.030851  (  1.212735  -0.696251   1.036995)
  19:       908.33    4.769324  ( -1.298159   1.718752   0.360550)
  20:       929.93  180.054509  ( -1.412725   4.210752  12.662081)
  21:       937.27    1.292767  (  0.479582  -0.904063   0.495416)
  22:       974.42    1.556630  ( -1.039959  -0.617512   0.306259)
  23:       982.17   26.761264  ( -3.595896  -3.548145   1.114209)
  24:      1073.73   43.573872  (  1.882896  -0.863584  -6.267599)
  25:      1189.12    0.885680  (  0.666792  -0.655507   0.106670)
  26:      1206.53    5.509213  ( -0.647807   0.283479   2.238124)
  27:      1301.33    9.203792  (  0.818124  -0.263280  -2.909493)
  28:      1312.75    1.789415  ( -0.214199   0.613854   1.169067)
  29:      1368.97   12.319407  (  2.475085  -2.194717   1.173276)
  30:      1375.81    6.536667  (  2.243005   0.873507  -0.861732)
  31:      1416.74    3.392921  (  0.445598  -0.427564  -1.735383)
  32:      1439.02    0.836625  ( -0.705262   0.571956  -0.109987)
  33:      1450.52   12.434479  (  1.107607  -0.859709  -3.235519)
  34:      1450.72    3.393895  ( -0.118574  -0.013096  -1.838386)
  35:      1468.96   20.630101  (  2.941622   3.434872  -0.422626)
  36:      3049.60   48.895213  ( -4.905858   4.468120  -2.205375)
  37:      3052.66   25.235186  (  3.248373   3.256948  -2.018800)
  38:      3075.20   15.575813  (  1.286970  -0.655990  -3.672765)
  39:      3145.26   32.110576  ( -5.533581  -0.683979   1.011051)
  40:      3147.99   29.890905  (  1.305738   3.844078  -3.661833)
  41:      3156.54   10.689760  (  1.500359   2.241085   1.848301)
  42:      3162.04   18.062004  ( -0.708502  -3.069137  -2.853143)
  43:      3247.92    3.890730  (  1.229786   1.009832  -1.165589)
  44:      3385.82    9.364035  ( -2.201578   1.944933  -0.856929)

The first frequency considered to be a vibration is 7
The total number of vibrations considered is 38


--------------------------
THERMOCHEMISTRY AT 298.15K
--------------------------

Temperature         ... 298.15 K
Pressure            ... 1.00 atm
Total Mass          ... 216.92 AMU

Throughout the following assumptions are being made:
  (1) The electronic state is orbitally nondegenerate
  (2) There are no thermally accessible electronically excited states
  (3) Hindered rotations indicated by low frequency modes are not
      treated as such but are treated as vibrations and this may
      cause some error
  (4) All equations used are the standard statistical mechanics
      equations for an ideal gas
  (5) All vibrations are strictly harmonic

freq.      34.35  E(vib)   ...       0.54 
freq.      99.29  E(vib)   ...       0.46 
freq.     128.86  E(vib)   ...       0.43 
freq.     145.75  E(vib)   ...       0.41 
freq.     164.89  E(vib)   ...       0.39 
freq.     236.28  E(vib)   ...       0.32 
freq.     250.19  E(vib)   ...       0.31 
freq.     363.33  E(vib)   ...       0.22 
freq.     395.29  E(vib)   ...       0.20 
freq.     500.81  E(vib)   ...       0.14 
freq.     819.81  E(vib)   ...       0.05 
freq.     846.19  E(vib)   ...       0.04 
freq.     908.33  E(vib)   ...       0.03 
freq.     929.93  E(vib)   ...       0.03 
freq.     937.27  E(vib)   ...       0.03 
freq.     974.42  E(vib)   ...       0.03 
freq.     982.17  E(vib)   ...       0.02 
freq.    1073.73  E(vib)   ...       0.02 
freq.    1189.12  E(vib)   ...       0.01 
freq.    1206.53  E(vib)   ...       0.01 
freq.    1301.33  E(vib)   ...       0.01 
freq.    1312.75  E(vib)   ...       0.01 
freq.    1368.97  E(vib)   ...       0.01 
freq.    1375.81  E(vib)   ...       0.01 
freq.    1416.74  E(vib)   ...       0.00 
freq.    1439.02  E(vib)   ...       0.00 
freq.    1450.52  E(vib)   ...       0.00 
freq.    1450.72  E(vib)   ...       0.00 
freq.    1468.96  E(vib)   ...       0.00 
freq.    3049.60  E(vib)   ...       0.00 
freq.    3052.66  E(vib)   ...       0.00 
freq.    3075.20  E(vib)   ...       0.00 
freq.    3145.26  E(vib)   ...       0.00 
freq.    3147.99  E(vib)   ...       0.00 
freq.    3156.54  E(vib)   ...       0.00 
freq.    3162.04  E(vib)   ...       0.00 
freq.    3247.92  E(vib)   ...       0.00 
freq.    3385.82  E(vib)   ...       0.00 

------------
INNER ENERGY
------------

The inner energy is: U= E(el) + E(ZPE) + E(vib) + E(rot) + E(trans)
    E(el)   - is the total energy from the electronic structure calculation
              = E(kin-el) + E(nuc-el) + E(el-el) + E(nuc-nuc)
    E(ZPE)  - the the zero temperature vibrational energy from the frequency calculation
    E(vib)  - the the finite temperature correction to E(ZPE) due to population
              of excited vibrational states
    E(rot)  - is the rotational thermal energy
    E(trans)- is the translational thermal energy

Summary of contributions to the inner energy U:
Electronic energy                ...  -5304.79212794 Eh
Zero point energy                ...      0.12118573 Eh      76.05 kcal/mol
Thermal vibrational correction   ...      0.00592759 Eh       3.72 kcal/mol
Thermal rotational correction    ...      0.00141627 Eh       0.89 kcal/mol
Thermal translational correction ...      0.00141627 Eh       0.89 kcal/mol
-----------------------------------------------------------------------
Total thermal energy                  -5304.66218208 Eh


Summary of corrections to the electronic energy:
(perhaps to be used in another calculation)
Total thermal correction                  0.00876013 Eh       5.50 kcal/mol
Non-thermal (ZPE) correction              0.12118573 Eh      76.05 kcal/mol
-----------------------------------------------------------------------
Total correction                          0.12994586 Eh      81.54 kcal/mol


--------
ENTHALPY
--------

The enthalpy is H = U + kB*T
                kB is Boltzmann's constant
Total free energy                 ...  -5304.66218208 Eh 
Thermal Enthalpy correction       ...      0.00094421 Eh       0.59 kcal/mol
-----------------------------------------------------------------------
Total Enthalpy                    ...  -5304.66123787 Eh


Note: Only C1 symmetry has been detected, increase convergence thresholds 
      if your molecule has a higher symmetry. Symmetry factor of 1.0 is   
      used for the rotational entropy correction. 
 

Note: Rotational entropy computed according to Herzberg 
Infrared and Raman Spectra, Chapter V,1, Van Nostrand Reinhold, 1945 
Point Group:  C1, Symmetry Number:   1  
Rotational constants in cm-1:     0.061789     0.015673     0.013648 

Vibrational entropy computed according to the QRRHO of S. Grimme
Chem.Eur.J. 2012 18 9955


-------
ENTROPY
-------

The entropy contributions are T*S = T*(S(el)+S(vib)+S(rot)+S(trans))
     S(el)   - electronic entropy
     S(vib)  - vibrational entropy
     S(rot)  - rotational entropy
     S(trans)- translational entropy
The entropies will be listed as mutliplied by the temperature to get
units of energy

Electronic entropy                ...      0.00000000 Eh      0.00 kcal/mol
Vibrational entropy               ...      0.01079364 Eh      6.77 kcal/mol
Rotational entropy                ...      0.01481426 Eh      9.30 kcal/mol
Translational entropy             ...      0.01996792 Eh     12.53 kcal/mol
-----------------------------------------------------------------------
Final entropy term                ...      0.04557582 Eh     28.60 kcal/mol

In case the symmetry of your molecule has not been determined correctly
or in case you have a reason to use a different symmetry number we print 
out the resulting rotational entropy values for sn=1,12 :
 --------------------------------------------------------
|  sn= 1 | S(rot)=       0.01481426 Eh      9.30 kcal/mol|
|  sn= 2 | S(rot)=       0.01415981 Eh      8.89 kcal/mol|
|  sn= 3 | S(rot)=       0.01377697 Eh      8.65 kcal/mol|
|  sn= 4 | S(rot)=       0.01350535 Eh      8.47 kcal/mol|
|  sn= 5 | S(rot)=       0.01329466 Eh      8.34 kcal/mol|
|  sn= 6 | S(rot)=       0.01312252 Eh      8.23 kcal/mol|
|  sn= 7 | S(rot)=       0.01297697 Eh      8.14 kcal/mol|
|  sn= 8 | S(rot)=       0.01285089 Eh      8.06 kcal/mol|
|  sn= 9 | S(rot)=       0.01273968 Eh      7.99 kcal/mol|
|  sn=10 | S(rot)=       0.01264020 Eh      7.93 kcal/mol|
|  sn=11 | S(rot)=       0.01255021 Eh      7.88 kcal/mol|
|  sn=12 | S(rot)=       0.01246806 Eh      7.82 kcal/mol|
 --------------------------------------------------------


-------------------
GIBBS FREE ENERGY
-------------------

The Gibbs free energy is G = H - T*S

Total enthalpy                    ...  -5304.66123787 Eh 
Total entropy correction          ...     -0.04557582 Eh    -28.60 kcal/mol
-----------------------------------------------------------------------
Final Gibbs free energy         ...  -5304.70681369 Eh

For completeness - the Gibbs free energy minus the electronic energy
G-E(el)                           ...      0.08531425 Eh     53.54 kcal/mol

[1631208722.714769] [comp0806:239629:0]            sys.c:618  UCX  ERROR shmget(size=2097152 flags=0xfb0) for mm_recv_desc failed: Operation not permitted, please check shared memory limits by 'ipcs -l'
[1631208722.714900] [comp0806:239627:0]            sys.c:618  UCX  ERROR shmget(size=2097152 flags=0xfb0) for mm_recv_desc failed: Operation not permitted, please check shared memory limits by 'ipcs -l'
[1631208722.740950] [comp0806:239628:0]            sys.c:618  UCX  ERROR shmget(size=2097152 flags=0xfb0) for mm_recv_desc failed: Operation not permitted, please check shared memory limits by 'ipcs -l'
[1631208722.741706] [comp0806:239630:0]            sys.c:618  UCX  ERROR shmget(size=2097152 flags=0xfb0) for mm_recv_desc failed: Operation not permitted, please check shared memory limits by 'ipcs -l'
[1631208722.776910] [comp0806:239630:0]            sys.c:618  UCX  ERROR shmget(size=2097152 flags=0xb80) for ucp_am_bufs failed: Operation not permitted, please check shared memory limits by 'ipcs -l'
[1631208722.777637] [comp0806:239627:0]            sys.c:618  UCX  ERROR shmget(size=2097152 flags=0xb80) for ucp_am_bufs failed: Operation not permitted, please check shared memory limits by 'ipcs -l'
[1631208722.777637] [comp0806:239628:0]            sys.c:618  UCX  ERROR shmget(size=2097152 flags=0xb80) for ucp_am_bufs failed: Operation not permitted, please check shared memory limits by 'ipcs -l'
[1631208722.788092] [comp0806:239629:0]            sys.c:618  UCX  ERROR shmget(size=2097152 flags=0xb80) for ucp_am_bufs failed: Operation not permitted, please check shared memory limits by 'ipcs -l'

Timings for individual modules:

Sum of individual times         ...      425.998 sec (=   7.100 min)
GTO integral calculation        ...       15.880 sec (=   0.265 min)   3.7 %
SCF iterations                  ...      155.056 sec (=   2.584 min)  36.4 %
SCF Gradient evaluation         ...       50.638 sec (=   0.844 min)  11.9 %
Geometry relaxation             ...        1.710 sec (=   0.028 min)   0.4 %
Analytical frequency calculation...      202.715 sec (=   3.379 min)  47.6 %
                             ****ORCA TERMINATED NORMALLY****
TOTAL RUN TIME: 0 days 0 hours 7 minutes 10 seconds 715 msec
