
                                 *****************
                                 * O   R   C   A *
                                 *****************

           --- An Ab Initio, DFT and Semiempirical electronic structure package ---

                  #######################################################
                  #                        -***-                        #
                  #          Department of theory and spectroscopy      #
                  #               Directorship: Frank Neese             #
                  #        Max Planck Institute fuer Kohlenforschung    #
                  #                Kaiser Wilhelm Platz 1               #
                  #                 D-45470 Muelheim/Ruhr               #
                  #                      Germany                        #
                  #                                                     #
                  #                  All rights reserved                #
                  #                        -***-                        #
                  #######################################################


                         Program Version 4.2.1 -  RELEASE  -


 With contributions from (in alphabetic order):
   Daniel Aravena         : Magnetic Suceptibility
   Michael Atanasov       : Ab Initio Ligand Field Theory (pilot matlab implementation)
   Alexander A. Auer      : GIAO ZORA, VPT2
   Ute Becker             : Parallelization
   Giovanni Bistoni       : ED, misc. LED, open-shell LED, HFLD
   Martin Brehm           : Molecular dynamics
   Dmytro Bykov           : SCF Hessian
   Vijay G. Chilkuri      : MRCI spin determinant printing, contributions to CSF-ICE
   Dipayan Datta          : RHF DLPNO-CCSD density
   Achintya Kumar Dutta   : EOM-CC, STEOM-CC
   Dmitry Ganyushin       : Spin-Orbit,Spin-Spin,Magnetic field MRCI
   Miquel Garcia          : C-PCM Hessian, Gaussian charge scheme
   Yang Guo               : DLPNO-NEVPT2, CIM, IAO-localization
   Andreas Hansen         : Spin unrestricted coupled pair/coupled cluster methods
   Benjamin Helmich-Paris : CASSCF linear response (MC-RPA)
   Lee Huntington         : MR-EOM, pCC
   Robert Izsak           : Overlap fitted RIJCOSX, COSX-SCS-MP3, EOM
   Christian Kollmar      : KDIIS, OOCD, Brueckner-CCSD(T), CCSD density
   Simone Kossmann        : Meta GGA functionals, TD-DFT gradient, OOMP2, MP2 Hessian
   Martin Krupicka        : AUTO-CI
   Lucas Lang             : DCDCAS
   Dagmar Lenk            : GEPOL surface, SMD
   Dimitrios Liakos       : Extrapolation schemes; Compound Job, initial MDCI parallelization
   Dimitrios Manganas     : Further ROCIS development; embedding schemes
   Dimitrios Pantazis     : SARC Basis sets
   Taras Petrenko         : DFT Hessian,TD-DFT gradient, ASA, ECA, R-Raman, ABS, FL, XAS/XES, NRVS
   Peter Pinski           : DLPNO-MP2, DLPNO-MP2 Gradient
   Christoph Reimann      : Effective Core Potentials
   Marius Retegan         : Local ZFS, SOC
   Christoph Riplinger    : Optimizer, TS searches, QM/MM, DLPNO-CCSD(T), (RO)-DLPNO pert. Triples
   Tobias Risthaus        : Range-separated hybrids, TD-DFT gradient, RPA, STAB
   Michael Roemelt        : Original ROCIS implementation
   Masaaki Saitow         : Open-shell DLPNO-CCSD energy and density
   Barbara Sandhoefer     : DKH picture change effects
   Avijit Sen             : IP-ROCIS
   Kantharuban Sivalingam : CASSCF convergence, NEVPT2, FIC-MRCI
   Bernardo de Souza      : ESD, SOC TD-DFT
   Georgi Stoychev        : AutoAux, RI-MP2 NMR
   Willem Van den Heuvel  : Paramagnetic NMR
   Boris Wezisla          : Elementary symmetry handling
   Frank Wennmohs         : Technical directorship


 We gratefully acknowledge several colleagues who have allowed us to
 interface, adapt or use parts of their codes:
   Stefan Grimme, W. Hujo, H. Kruse,             : VdW corrections, initial TS optimization,
                  C. Bannwarth                     DFT functionals, gCP, sTDA/sTD-DF
   Ed Valeev, F. Pavosevic, A. Kumar             : LibInt (2-el integral package), F12 methods
   Garnet Chan, S. Sharma, J. Yang, R. Olivares  : DMRG
   Ulf Ekstrom                                   : XCFun DFT Library
   Mihaly Kallay                                 : mrcc  (arbitrary order and MRCC methods)
   Andreas Klamt, Michael Diedenhofen            : otool_cosmo (COSMO solvation model)
   Jiri Pittner, Ondrej Demel                    : Mk-CCSD
   Frank Weinhold                                : gennbo (NPA and NBO analysis)
   Christopher J. Cramer and Donald G. Truhlar   : smd solvation model
   Lars Goerigk                                  : TD-DFT with DH, B97 family of functionals
   V. Asgeirsson, H. Jonsson                     : NEB implementation
   FAccTs GmbH                                   : IRC, NEB, NEB-TS, Multilevel, MM, QM/MM, CI optimization
   S Lehtola, MJT Oliveira, MAL Marques          : LibXC Library


 Your calculation uses the libint2 library for the computation of 2-el integrals
 For citations please refer to: http://libint.valeyev.net

 Your ORCA version has been built with support for libXC version: 4.2.3
 For citations please refer to: https://tddft.org/programs/libxc/

 This ORCA versions uses:
   CBLAS   interface :  Fast vector & matrix operations
   LAPACKE interface :  Fast linear algebra routines
   SCALAPACK package :  Parallel linear algebra routines


Your calculation utilizes the atom-pairwise dispersion correction
with the Becke-Johnson damping scheme (D3BJ)
Cite in your paper:
S.Grimme, S.Ehrlich, L.Goerigk, J Comput Chem, (2011), 32, 1456–1465 
S.Grimme, J.Antony, S.Ehrlich and H.Krieg, J.Chem.Phys., 132, (2010), 154104 
   

----- Orbital basis set information -----
Your calculation utilizes the basis: def2-SVP
   F. Weigend and R. Ahlrichs, Phys. Chem. Chem. Phys. 7, 3297 (2005).

----- AuxJ basis set information -----
Your calculation utilizes the auxiliary basis: def2/J
   F. Weigend, Phys. Chem. Chem. Phys. 8, 1057 (2006).

================================================================================
                                        WARNINGS
                       Please study these warnings very carefully!
================================================================================


WARNING: Geometry Optimization
  ===> : Switching off AutoStart
         For restart on a previous wavefunction, please use MOREAD

INFO   : the flag for use of LIBINT has been found!

================================================================================
                                       INPUT FILE
================================================================================
NAME = manual_327.inp
|  1> ! OptTS Freq PBE0 RIJCOSX D3BJ def2-SVP def2/J CPCM(Acetone)
|  2> %geom
|  3> modify_internal
|  4> { B 0 5 A } end
|  5> end
|  6> %geom
|  7> modify_internal
|  8> { B 0 1 A } end
|  9> end
| 10> %output 
| 11> xyzfile=True 
| 12> end 
| 13> %scf 
| 14> maxiter 250 
| 15> end
| 16> %output
| 17> Print[P_Hirshfeld] = 1
| 18> end
| 19> % maxcore
| 20> 4000
| 21> %geom
| 22> Calc_Hess true
| 23> Recalc_Hess 30
| 24> Trust -0.1
| 25> MaxIter 150
| 26> end
| 27> %pal nprocs 4
| 28> end
| 29> *xyz -1 1
| 30> C    -0.74697  -0.14650   0.30573
| 31> Br    1.43903   0.24345  -0.59042
| 32> H    -1.00219  -0.83849  -0.48806
| 33> H    -1.00593   0.90138   0.21236
| 34> H    -0.34463  -0.52536   1.23865
| 35> Br   -2.92335  -0.48590   1.19973
| 36> *
| 37> 
| 38>                          ****END OF INPUT****
================================================================================

                       *****************************
                       * Geometry Optimization Run *
                       *****************************

Geometry optimization settings:
Update method            Update   .... Bofill
Choice of coordinates    CoordSys .... Z-matrix Internals
Initial Hessian          InHess   .... Almoef's Model

Convergence Tolerances:
Energy Change            TolE     ....  5.0000e-06 Eh
Max. Gradient            TolMAXG  ....  3.0000e-04 Eh/bohr
RMS Gradient             TolRMSG  ....  1.0000e-04 Eh/bohr
Max. Displacement        TolMAXD  ....  4.0000e-03 bohr
RMS Displacement         TolRMSD  ....  2.0000e-03 bohr
Strict Convergence                ....  False
------------------------------------------------------------------------------
                        ORCA OPTIMIZATION COORDINATE SETUP
------------------------------------------------------------------------------

The optimization will be done in new redundant internal coordinates
Making redundant internal coordinates   ...  (new redundants) Bond   5,  0 is already included
Bond   1,  0 is already included
done
Following TS mode number                ...     0
Evaluating the initial hessian          ...  (Is done on the fly) done
Evaluating the coordinates              ...  done
Calculating the B-matrix                .... done
Calculating the G-matrix                .... done
Diagonalizing the G-matrix              .... done
The first mode is                       ....    2
The number of degrees of freedom        ....   12

    -----------------------------------------------------------------
                    Redundant Internal Coordinates


    -----------------------------------------------------------------
         Definition                    Initial Value    d2E/dq (diagonal element)
    -----------------------------------------------------------------
      1. B(Br  1,C   0)                  2.3945         0.000000   
      2. B(H   2,C   0)                  1.0836         0.000000   
      3. B(H   3,C   0)                  1.0834         0.000000   
      4. B(H   4,C   0)                  1.0843         0.000000   
      5. B(Br  5,C   0)                  2.3772         0.000000   
      6. A(Br  1,C   0,H   3)           91.6299         0.000000   
      7. A(H   2,C   0,H   3)          119.8837         0.000000   
      8. A(Br  1,C   0,H   4)           92.3013         0.000000   
      9. A(H   2,C   0,H   4)          119.6403         0.000000   
     10. A(H   3,C   0,H   4)          120.0508         0.000000   
     11. A(H   2,C   0,Br  5)           88.2053         0.000000   
     12. A(H   3,C   0,Br  5)           87.2299         0.000000   
     13. A(H   4,C   0,Br  5)           88.0664         0.000000   
     14. A(Br  1,C   0,H   2)           92.5712         0.000000   
    -----------------------------------------------------------------

Number of atoms                         .... 6
Number of degrees of freedom            .... 14

         *************************************************************
         *                GEOMETRY OPTIMIZATION CYCLE   1            *
         *************************************************************
---------------------------------
CARTESIAN COORDINATES (ANGSTROEM)
---------------------------------
  C     -0.746970   -0.146500    0.305730
  Br     1.439030    0.243450   -0.590420
  H     -1.002190   -0.838490   -0.488060
  H     -1.005930    0.901380    0.212360
  H     -0.344630   -0.525360    1.238650
  Br    -2.923350   -0.485900    1.199730

----------------------------
CARTESIAN COORDINATES (A.U.)
----------------------------
  NO LB      ZA    FRAG     MASS         X           Y           Z
   0 C     6.0000    0    12.011   -1.411569   -0.276845    0.577746
   1 Br   35.0000    0    79.900    2.719373    0.460054   -1.115732
   2 H     1.0000    0     1.008   -1.893865   -1.584516   -0.922300
   3 H     1.0000    0     1.008   -1.900932    1.703361    0.401302
   4 H     1.0000    0     1.008   -0.651256   -0.992787    2.340709
   5 Br   35.0000    0    79.900   -5.524331   -0.918218    2.267161

--------------------------------
INTERNAL COORDINATES (ANGSTROEM)
--------------------------------
 C      0   0   0     0.000000000000     0.00000000     0.00000000
 Br     1   0   0     2.394523298070     0.00000000     0.00000000
 H      1   2   0     1.083554323788    92.57123845     0.00000000
 H      1   2   3     1.083434692494    91.62993405   239.98529179
 H      1   2   3     1.084321032536    92.30128105   119.81859279
 Br     1   2   3     2.377195461968   178.83526619   228.20179991

---------------------------
INTERNAL COORDINATES (A.U.)
---------------------------
 C      0   0   0     0.000000000000     0.00000000     0.00000000
 Br     1   0   0     4.524993254646     0.00000000     0.00000000
 H      1   2   0     2.047620923186    92.57123845     0.00000000
 H      1   2   3     2.047394852803    91.62993405   239.98529179
 H      1   2   3     2.049069792744    92.30128105   119.81859279
 Br     1   2   3     4.492248389919   178.83526619   228.20179991

---------------------
BASIS SET INFORMATION
---------------------
There are 3 groups of distinct atoms

 Group   1 Type C   : 7s4p1d contracted to 3s2p1d pattern {511/31/1}
 Group   2 Type Br  : 14s10p6d contracted to 5s4p3d pattern {63311/5311/411}
 Group   3 Type H   : 4s1p contracted to 2s1p pattern {31/1}

Atom   0C    basis set group =>   1
Atom   1Br   basis set group =>   2
Atom   2H    basis set group =>   3
Atom   3H    basis set group =>   3
Atom   4H    basis set group =>   3
Atom   5Br   basis set group =>   2
---------------------------------
AUXILIARY/J BASIS SET INFORMATION
---------------------------------
There are 3 groups of distinct atoms

 Group   1 Type C   : 12s5p4d2f1g contracted to 6s4p3d1f1g pattern {711111/2111/211/2/1}
 Group   2 Type Br  : 19s5p5d3f1g contracted to 8s4p3d2f1g pattern {121111111/2111/311/21/1}
 Group   3 Type H   : 5s2p1d contracted to 3s1p1d pattern {311/2/1}

Atom   0C    basis set group =>   1
Atom   1Br   basis set group =>   2
Atom   2H    basis set group =>   3
Atom   3H    basis set group =>   3
Atom   4H    basis set group =>   3
Atom   5Br   basis set group =>   2
[1631208282.578238] [comp0805:249103:0]            sys.c:618  UCX  ERROR shmget(size=2097152 flags=0xfb0) for mm_recv_desc failed: Operation not permitted, please check shared memory limits by 'ipcs -l'
[1631208282.592572] [comp0805:249104:0]            sys.c:618  UCX  ERROR shmget(size=2097152 flags=0xfb0) for mm_recv_desc failed: Operation not permitted, please check shared memory limits by 'ipcs -l'
[1631208282.592710] [comp0805:249105:0]            sys.c:618  UCX  ERROR shmget(size=2097152 flags=0xfb0) for mm_recv_desc failed: Operation not permitted, please check shared memory limits by 'ipcs -l'
[1631208282.593107] [comp0805:249106:0]            sys.c:618  UCX  ERROR shmget(size=2097152 flags=0xfb0) for mm_recv_desc failed: Operation not permitted, please check shared memory limits by 'ipcs -l'
[1631208282.600654] [comp0805:249103:0]            sys.c:618  UCX  ERROR shmget(size=2097152 flags=0xb80) for ucp_am_bufs failed: Operation not permitted, please check shared memory limits by 'ipcs -l'
[1631208282.601401] [comp0805:249104:0]            sys.c:618  UCX  ERROR shmget(size=2097152 flags=0xb80) for ucp_am_bufs failed: Operation not permitted, please check shared memory limits by 'ipcs -l'
[1631208282.659787] [comp0805:249106:0]            sys.c:618  UCX  ERROR shmget(size=2097152 flags=0xb80) for ucp_am_bufs failed: Operation not permitted, please check shared memory limits by 'ipcs -l'
[1631208282.660680] [comp0805:249105:0]            sys.c:618  UCX  ERROR shmget(size=2097152 flags=0xb80) for ucp_am_bufs failed: Operation not permitted, please check shared memory limits by 'ipcs -l'


           ************************************************************
           *        Program running with 4 parallel MPI-processes     *
           *              working on a common directory               *
           ************************************************************
------------------------------------------------------------------------------
                           ORCA GTO INTEGRAL CALCULATION
                           -- RI-GTO INTEGRALS CHOSEN --
------------------------------------------------------------------------------

                         BASIS SET STATISTICS AND STARTUP INFO

Gaussian basis set:
 # of primitive gaussian shells          ...   87
 # of primitive gaussian functions       ...  193
 # of contracted shells                  ...   39
 # of contracted basis functions         ...   93
 Highest angular momentum                ...    2
 Maximum contraction depth               ...    6
Auxiliary gaussian basis set:
 # of primitive gaussian shells          ...  114
 # of primitive gaussian functions       ...  296
 # of contracted shells                  ...   66
 # of contracted aux-basis functions     ...  198
 Highest angular momentum                ...    4
 Maximum contraction depth               ...   12
Ratio of auxiliary to basis functions    ...  2.13
Integral package used                  ... LIBINT
 One Electron integrals                  ... done
 Ordering auxiliary basis shells         ... done
 Integral threshhold             Thresh  ...  2.500e-11
 Primitive cut-off               TCut    ...  2.500e-12
 Pre-screening matrix                    ... done
 Shell pair data                         ... 
 Ordering of the shell pairs             ... done (   0.000 sec) 699 of 780 pairs
 Determination of significant pairs      ... done (   0.000 sec)
 Creation of shell pair data             ... done (   0.000 sec)
 Storage of shell pair data              ... done (   0.007 sec)
 Shell pair data done in (   0.008 sec)
 Computing two index integrals           ... done
 Cholesky decomposition of the V-matrix  ... done


Timings:
 Total evaluation time                   ...   0.376 sec (  0.006 min)
 One electron matrix time                ...   0.016 sec (  0.000 min) =  4.4%
 Schwartz matrix evaluation time         ...   0.131 sec (  0.002 min) = 34.9%
 Two index repulsion integral time       ...   0.001 sec (  0.000 min) =  0.2%
 Cholesky decomposition of V             ...   0.185 sec (  0.003 min) = 49.1%
 Three index repulsion integral time     ...   0.000 sec (  0.000 min) =  0.0%

[1631208285.076623] [comp0805:249134:0]            sys.c:618  UCX  ERROR shmget(size=2097152 flags=0xfb0) for mm_recv_desc failed: Operation not permitted, please check shared memory limits by 'ipcs -l'
[1631208285.085023] [comp0805:249132:0]            sys.c:618  UCX  ERROR shmget(size=2097152 flags=0xfb0) for mm_recv_desc failed: Operation not permitted, please check shared memory limits by 'ipcs -l'
[1631208285.108764] [comp0805:249135:0]            sys.c:618  UCX  ERROR shmget(size=2097152 flags=0xfb0) for mm_recv_desc failed: Operation not permitted, please check shared memory limits by 'ipcs -l'
[1631208285.108939] [comp0805:249133:0]            sys.c:618  UCX  ERROR shmget(size=2097152 flags=0xfb0) for mm_recv_desc failed: Operation not permitted, please check shared memory limits by 'ipcs -l'
[1631208285.116555] [comp0805:249132:0]            sys.c:618  UCX  ERROR shmget(size=2097152 flags=0xb80) for ucp_am_bufs failed: Operation not permitted, please check shared memory limits by 'ipcs -l'


           ************************************************************
           *        Program running with 4 parallel MPI-processes     *
           *              working on a common directory               *
           ************************************************************
[1631208285.118404] [comp0805:249134:0]            sys.c:618  UCX  ERROR shmget(size=2097152 flags=0xb80) for ucp_am_bufs failed: Operation not permitted, please check shared memory limits by 'ipcs -l'
[1631208285.118784] [comp0805:249133:0]            sys.c:618  UCX  ERROR shmget(size=2097152 flags=0xb80) for ucp_am_bufs failed: Operation not permitted, please check shared memory limits by 'ipcs -l'
[1631208285.119860] [comp0805:249135:0]            sys.c:618  UCX  ERROR shmget(size=2097152 flags=0xb80) for ucp_am_bufs failed: Operation not permitted, please check shared memory limits by 'ipcs -l'
-------------------------------------------------------------------------------
                                 ORCA SCF
-------------------------------------------------------------------------------

------------
SCF SETTINGS
------------
Hamiltonian:
 Density Functional     Method          .... DFT(GTOs)
 Exchange Functional    Exchange        .... PBE
   PBE kappa parameter   XKappa         ....  0.804000
   PBE mue parameter    XMuePBE         ....  0.219520
 Correlation Functional Correlation     .... PBE
   PBE beta parameter  CBetaPBE         ....  0.066725
 LDA part of GGA corr.  LDAOpt          .... PW91-LDA
 Gradients option       PostSCFGGA      .... off
 Hybrid DFT is turned on
   Fraction HF Exchange ScalHFX         ....  0.250000
   Scaling of DF-GGA-X  ScalDFX         ....  0.750000
   Scaling of DF-GGA-C  ScalDFC         ....  1.000000
   Scaling of DF-LDA-C  ScalLDAC        ....  1.000000
   Perturbative correction              ....  0.000000
   Density functional embedding theory  .... OFF
   NL short-range parameter             ....  6.900000
 RI-approximation to the Coulomb term is turned on
   Number of auxiliary basis functions  .... 198
   RIJ-COSX (HFX calculated with COS-X)).... on


General Settings:
 Integral files         IntName         .... manual_327
 Hartree-Fock type      HFTyp           .... RHF
 Total Charge           Charge          ....   -1
 Multiplicity           Mult            ....    1
 Number of Electrons    NEL             ....   80
 Basis Dimension        Dim             ....   93
 Nuclear Repulsion      ENuc            ....    281.0733201227 Eh

Convergence Acceleration:
 DIIS                   CNVDIIS         .... on
   Start iteration      DIISMaxIt       ....    12
   Startup error        DIISStart       ....  0.200000
   # of expansion vecs  DIISMaxEq       ....     5
   Bias factor          DIISBfac        ....   1.050
   Max. coefficient     DIISMaxC        ....  10.000
 Newton-Raphson         CNVNR           .... off
 SOSCF                  CNVSOSCF        .... on
   Start iteration      SOSCFMaxIt      ....   150
   Startup grad/error   SOSCFStart      ....  0.003300
 Level Shifting         CNVShift        .... on
   Level shift para.    LevelShift      ....    0.2500
   Turn off err/grad.   ShiftErr        ....    0.0010
 Zerner damping         CNVZerner       .... off
 Static damping         CNVDamp         .... on
   Fraction old density DampFac         ....    0.7000
   Max. Damping (<1)    DampMax         ....    0.9800
   Min. Damping (>=0)   DampMin         ....    0.0000
   Turn off err/grad.   DampErr         ....    0.1000
 Fernandez-Rico         CNVRico         .... off

SCF Procedure:
 Maximum # iterations   MaxIter         ....   250
 SCF integral mode      SCFMode         .... Direct
   Integral package                     .... LIBINT
 Reset frequency        DirectResetFreq ....    20
 Integral Threshold     Thresh          ....  2.500e-11 Eh
 Primitive CutOff       TCut            ....  2.500e-12 Eh

Convergence Tolerance:
 Convergence Check Mode ConvCheckMode   .... Total+1el-Energy
 Convergence forced     ConvForced      .... 0
 Energy Change          TolE            ....  1.000e-08 Eh
 1-El. energy change                    ....  1.000e-05 Eh
 Orbital Gradient       TolG            ....  1.000e-05
 Orbital Rotation angle TolX            ....  1.000e-05
 DIIS Error             TolErr          ....  5.000e-07


Diagonalization of the overlap matrix:
Smallest eigenvalue                        ... 1.345e-02
Time for diagonalization                   ...    0.152 sec
Threshold for overlap eigenvalues          ... 1.000e-08
Number of eigenvalues below threshold      ... 0
Time for construction of square roots      ...    0.001 sec
Total time needed                          ...    0.153 sec

-------------------
DFT GRID GENERATION
-------------------

General Integration Accuracy     IntAcc      ...  4.340
Radial Grid Type                 RadialGrid  ... Gauss-Chebyshev
Angular Grid (max. acc.)         AngularGrid ... Lebedev-110
Angular grid pruning method      GridPruning ... 3 (G Style)
Weight generation scheme         WeightScheme... Becke
Basis function cutoff            BFCut       ...    1.0000e-11
Integration weight cutoff        WCut        ...    1.0000e-14
Grids for H and He will be reduced by one unit

# of grid points (after initial pruning)     ...   9818 (   0.0 sec)
# of grid points (after weights+screening)   ...   9639 (   0.0 sec)
nearest neighbour list constructed           ...    0.0 sec
Grid point re-assignment to atoms done       ...    0.0 sec
Grid point division into batches done        ...    0.0 sec
Reduced shell lists constructed in    0.0 sec

Total number of grid points                  ...     9639
Total number of batches                      ...      154
Average number of points per batch           ...       62
Average number of grid points per atom       ...     1606
Average number of shells per batch           ...    25.62 (65.71%)
Average number of basis functions per batch  ...    59.78 (64.27%)
Average number of large shells per batch     ...    21.30 (83.12%)
Average number of large basis fcns per batch ...    48.45 (81.05%)
Maximum spatial batch extension              ...  14.03, 22.78, 25.60 au
Average spatial batch extension              ...   0.96,  1.08,  1.17 au

Time for grid setup =    0.063 sec

------------------------------
INITIAL GUESS: MODEL POTENTIAL
------------------------------
Loading Hartree-Fock densities                     ... done
Calculating cut-offs                               ... done
Setting up the integral package                    ... done
Initializing the effective Hamiltonian             ... done
Starting the Coulomb interaction                   ... done (   0.0 sec)
Reading the grid                                   ... done
Mapping shells                                     ... done
Starting the XC term evaluation                    ... done (   0.0 sec)
  promolecular density results
     # of electrons  =     79.000272204
     EX              =   -184.476989697
     EC              =     -3.698468027
     EX+EC           =   -188.175457724
Transforming the Hamiltonian                       ... done (   0.0 sec)
Diagonalizing the Hamiltonian                      ... done (   0.0 sec)
Back transforming the eigenvectors                 ... done (   0.0 sec)
Now organizing SCF variables                       ... done
                      ------------------
                      INITIAL GUESS DONE (   0.2 sec)
                      ------------------
--------------------
COSX GRID GENERATION
--------------------

General Integration Accuracy     IntAcc      ...  3.340
Radial Grid Type                 RadialGrid  ... Gauss-Chebyshev
Angular Grid (max. acc.)         AngularGrid ... Lebedev-50
Angular grid pruning method      GridPruning ... 3 (G Style)
Weight generation scheme         WeightScheme... Becke
Basis function cutoff            BFCut       ...    1.0000e-11
Integration weight cutoff        WCut        ...    1.0000e-14
Grids for H and He will be reduced by one unit

# of grid points (after initial pruning)     ...   3624 (   0.0 sec)
# of grid points (after weights+screening)   ...   3556 (   0.0 sec)
nearest neighbour list constructed           ...    0.0 sec
Grid point re-assignment to atoms done       ...    0.0 sec
Grid point division into batches done        ...    0.0 sec
Reduced shell lists constructed in    0.0 sec

Total number of grid points                  ...     3556
Total number of batches                      ...       58
Average number of points per batch           ...       61
Average number of grid points per atom       ...      593
Average number of shells per batch           ...    26.44 (67.79%)
Average number of basis functions per batch  ...    62.56 (67.27%)
Average number of large shells per batch     ...    22.75 (86.05%)
Average number of large basis fcns per batch ...    51.62 (82.52%)
Maximum spatial batch extension              ...  14.32, 20.99, 19.28 au
Average spatial batch extension              ...   1.38,  1.57,  1.56 au

Overlap Fitting                  UseSFitting ... on
Constructing numerical overlap ... done (      0.0 sec)
Inverting numerical overlap    ... done (      0.0 sec)
Obtaining analytic overlap     ... done (      0.0 sec)
Final contraction and storage  ... done (      0.0 sec)


General Integration Accuracy     IntAcc      ...  3.670
Radial Grid Type                 RadialGrid  ... Gauss-Chebyshev
Angular Grid (max. acc.)         AngularGrid ... Lebedev-50
Angular grid pruning method      GridPruning ... 3 (G Style)
Weight generation scheme         WeightScheme... Becke
Basis function cutoff            BFCut       ...    1.0000e-11
Integration weight cutoff        WCut        ...    1.0000e-14
Grids for H and He will be reduced by one unit

# of grid points (after initial pruning)     ...   4426 (   0.0 sec)
# of grid points (after weights+screening)   ...   4340 (   0.0 sec)
nearest neighbour list constructed           ...    0.0 sec
Grid point re-assignment to atoms done       ...    0.0 sec
Grid point division into batches done        ...    0.0 sec
Reduced shell lists constructed in    0.0 sec

Total number of grid points                  ...     4340
Total number of batches                      ...       71
Average number of points per batch           ...       61
Average number of grid points per atom       ...      723
Average number of shells per batch           ...    26.53 (68.02%)
Average number of basis functions per batch  ...    62.74 (67.46%)
Average number of large shells per batch     ...    22.47 (84.72%)
Average number of large basis fcns per batch ...    51.32 (81.80%)
Maximum spatial batch extension              ...  14.83, 22.63, 20.64 au
Average spatial batch extension              ...   1.22,  1.42,  1.45 au

Overlap Fitting                  UseSFitting ... on
Constructing numerical overlap ... done (      0.0 sec)
Inverting numerical overlap    ... done (      0.0 sec)
Obtaining analytic overlap     ... done (      0.0 sec)
Final contraction and storage  ... done (      0.0 sec)


General Integration Accuracy     IntAcc      ...  4.010
Radial Grid Type                 RadialGrid  ... Gauss-Chebyshev
Angular Grid (max. acc.)         AngularGrid ... Lebedev-110
Angular grid pruning method      GridPruning ... 3 (G Style)
Weight generation scheme         WeightScheme... Becke
Basis function cutoff            BFCut       ...    1.0000e-11
Integration weight cutoff        WCut        ...    1.0000e-14
Grids for H and He will be reduced by one unit

# of grid points (after initial pruning)     ...   8636 (   0.0 sec)
# of grid points (after weights+screening)   ...   8488 (   0.0 sec)
nearest neighbour list constructed           ...    0.0 sec
Grid point re-assignment to atoms done       ...    0.0 sec
Grid point division into batches done        ...    0.0 sec
Reduced shell lists constructed in    0.0 sec

Total number of grid points                  ...     8488
Total number of batches                      ...      136
Average number of points per batch           ...       62
Average number of grid points per atom       ...     1415
Average number of shells per batch           ...    25.63 (65.71%)
Average number of basis functions per batch  ...    60.03 (64.55%)
Average number of large shells per batch     ...    21.40 (83.50%)
Average number of large basis fcns per batch ...    48.66 (81.06%)
Maximum spatial batch extension              ...  13.84, 21.92, 24.23 au
Average spatial batch extension              ...   0.96,  1.12,  1.18 au

Overlap Fitting                  UseSFitting ... on
Constructing numerical overlap ... done (      0.0 sec)
Inverting numerical overlap    ... done (      0.0 sec)
Obtaining analytic overlap     ... done (      0.0 sec)
Final contraction and storage  ... done (      0.0 sec)

Time for X-Grid setup             =    0.120 sec

--------------------
CPCM SOLVATION MODEL
--------------------
CPCM parameters:
  Epsilon                                         ...      20.7000
  Refrac                                          ...       1.3590
  Rsolv                                           ...       1.3000
  Surface type                                    ...    GEPOL SES
  Epsilon function type                           ...         CPCM
Radii:
 Radius for C  used is    3.7795 Bohr (=   2.0000 Ang.)
 Radius for Br used is    4.0818 Bohr (=   2.1600 Ang.)
 Radius for H  used is    2.4566 Bohr (=   1.3000 Ang.)
Calculating surface                               ...        done! (  0.0s)
GEPOL surface points                              ...          255
GEPOL Volume                                      ...     706.6094
GEPOL Surface-area                                ...     441.3441
Calculating surface distance matrix               ...        done! (  0.0s)
Performing Cholesky decomposition & store         ...        done! (  0.0s)
Overall time for CPCM initialization              ...                 0.0s
--------------
SCF ITERATIONS
--------------
ITER       Energy         Delta-E        Max-DP      RMS-DP      [F,P]     Damp
               ***  Starting incremental Fock matrix formation  ***
  0  -5187.0134803019   0.000000000000 0.07325183  0.00233381  0.1062569 0.7000
  1  -5187.0343643966  -0.020884094742 0.06004359  0.00185854  0.0549470 0.7000
                               ***Turning on DIIS***
  2  -5187.0453000807  -0.010935684093 0.13275174  0.00388784  0.0316951 0.0000
  3  -5187.0632837869  -0.017983706208 0.03399976  0.00090610  0.0344857 0.0000
  4  -5187.0659278820  -0.002644095111 0.01005303  0.00032842  0.0040294 0.0000
                      *** Initiating the SOSCF procedure ***
                           *** Shutting down DIIS ***
                      *** Re-Reading the Fockian *** 
                      *** Removing any level shift *** 
ITER      Energy       Delta-E        Grad      Rot      Max-DP    RMS-DP
  5  -5187.06603922  -0.0001113367  0.000674  0.000674  0.001519  0.000058
               *** Restarting incremental Fock matrix formation ***
  6  -5187.06604621  -0.0000069962  0.000400  0.000665  0.000984  0.000046
  7  -5187.06604700  -0.0000007848  0.000297  0.000548  0.000621  0.000021
  8  -5187.06604780  -0.0000008045  0.000070  0.000154  0.000334  0.000010
  9  -5187.06604779   0.0000000161  0.000048  0.000062  0.000168  0.000005
 10  -5187.06604784  -0.0000000536  0.000003  0.000003  0.000007  0.000000
                  ***Gradient check signals convergence***
              ***Rediagonalizing the Fockian in SOSCF/NRSCF***

               *****************************************************
               *                     SUCCESS                       *
               *           SCF CONVERGED AFTER  11 CYCLES          *
               *****************************************************

Setting up the final grid:

General Integration Accuracy     IntAcc      ...  4.670
Radial Grid Type                 RadialGrid  ... Gauss-Chebyshev
Angular Grid (max. acc.)         AngularGrid ... Lebedev-302
Angular grid pruning method      GridPruning ... 3 (G Style)
Weight generation scheme         WeightScheme... Becke
Basis function cutoff            BFCut       ...    1.0000e-11
Integration weight cutoff        WCut        ...    1.0000e-14
Grids for H and He will be reduced by one unit

# of grid points (after initial pruning)     ...  35626 (   0.0 sec)
# of grid points (after weights+screening)   ...  34828 (   0.0 sec)
nearest neighbour list constructed           ...    0.0 sec
Grid point re-assignment to atoms done       ...    0.0 sec
Grid point division into batches done        ...    0.2 sec
Reduced shell lists constructed in    0.2 sec

Total number of grid points                  ...    34828
Total number of batches                      ...      547
Average number of points per batch           ...       63
Average number of grid points per atom       ...     5805
Average number of shells per batch           ...    23.49 (60.22%)
Average number of basis functions per batch  ...    54.64 (58.76%)
Average number of large shells per batch     ...    19.46 (82.84%)
Average number of large basis fcns per batch ...    43.70 (79.98%)
Maximum spatial batch extension              ...  15.86, 16.05, 16.77 au
Average spatial batch extension              ...   0.71,  0.76,  0.76 au

Final grid set up in    0.2 sec
Final integration                            ... done (   0.0 sec)
Change in XC energy                          ...    -0.000084617
Integrated number of electrons               ...    79.999977187
Previous integrated no of electrons          ...    80.002376294
Old exchange energy                            =    -46.409581997 Eh
New exchange energy                            =    -46.409636104 Eh
Exchange energy change after final integration =     -0.000054107 Eh
Total energy after final integration           =  -5187.066186541 Eh
Final COS-X integration done in                =     0.295 sec

----------------
TOTAL SCF ENERGY
----------------

Total Energy       :        -5187.06618654 Eh         -141147.24672 eV

Components:
Nuclear Repulsion  :          281.07332012 Eh            7648.39388 eV
Electronic Energy  :        -5468.13950666 Eh         -148795.64060 eV
One Electron Energy:        -7796.89633901 Eh         -212164.33561 eV
Two Electron Energy:         2328.75683235 Eh           63368.69501 eV
CPCM Dielectric    :           -0.08428138 Eh              -2.29341 eV

Virial components:
Potential Energy   :       -10368.63210860 Eh         -282144.82364 eV
Kinetic Energy     :         5181.56592206 Eh          140997.57692 eV
Virial Ratio       :            2.00106151


DFT components:
N(Alpha)           :       39.999988593465 electrons
N(Beta)            :       39.999988593465 electrons
N(Total)           :       79.999977186930 electrons
E(X)               :     -138.657745517638 Eh       
E(C)               :       -3.747388533626 Eh       
E(XC)              :     -142.405134051264 Eh       
DFET-embed. en.    :        0.000000000000 Eh       
CPCM Solvation Model Properties:
Surface-charge          :            0.97931380
Charge-correction       :           -0.00291498 Eh              -0.07932 eV
Free-energy (cav+disp)  :            0.00343732 Eh               0.09353 eV
Corrected G(solv)       :        -5187.06566421 Eh         -141147.23251 eV

---------------
SCF CONVERGENCE
---------------

  Last Energy change         ...    2.4659e-08  Tolerance :   1.0000e-08
  Last MAX-Density change    ...    3.9968e-15  Tolerance :   1.0000e-07
  Last RMS-Density change    ...    1.3449e-16  Tolerance :   5.0000e-09
  Last Orbital Gradient      ...    1.2259e-06  Tolerance :   1.0000e-05
  Last Orbital Rotation      ...    7.8843e-07  Tolerance :   1.0000e-05

             **** THE GBW FILE WAS UPDATED (manual_327.gbw) ****
             **** DENSITY FILE WAS UPDATED (manual_327.scfp) ****
             **** ENERGY FILE WAS UPDATED (manual_327.en.tmp) ****
             **** THE GBW FILE WAS UPDATED (manual_327.gbw) ****
             **** DENSITY FILE WAS UPDATED (manual_327.scfp) ****
----------------
ORBITAL ENERGIES
----------------

  NO   OCC          E(Eh)            E(eV) 
   0   2.0000    -483.107565    -13146.0252 
   1   2.0000    -483.106807    -13146.0045 
   2   2.0000     -62.543396     -1701.8923 
   3   2.0000     -62.542645     -1701.8719 
   4   2.0000     -56.331945     -1532.8702 
   5   2.0000     -56.331203     -1532.8500 
   6   2.0000     -56.330750     -1532.8376 
   7   2.0000     -56.330731     -1532.8371 
   8   2.0000     -56.329985     -1532.8168 
   9   2.0000     -56.329981     -1532.8167 
  10   2.0000     -10.278201      -279.6841 
  11   2.0000      -8.687474      -236.3982 
  12   2.0000      -8.686758      -236.3787 
  13   2.0000      -6.497445      -176.8045 
  14   2.0000      -6.496641      -176.7826 
  15   2.0000      -6.491870      -176.6528 
  16   2.0000      -6.491820      -176.6514 
  17   2.0000      -6.491188      -176.6342 
  18   2.0000      -6.491173      -176.6338 
  19   2.0000      -2.583629       -70.3041 
  20   2.0000      -2.582851       -70.2829 
  21   2.0000      -2.582155       -70.2640 
  22   2.0000      -2.582114       -70.2629 
  23   2.0000      -2.581416       -70.2439 
  24   2.0000      -2.581385       -70.2430 
  25   2.0000      -2.577628       -70.1408 
  26   2.0000      -2.577625       -70.1407 
  27   2.0000      -2.576996       -70.1236 
  28   2.0000      -2.576991       -70.1235 
  29   2.0000      -0.741617       -20.1804 
  30   2.0000      -0.699818       -19.0430 
  31   2.0000      -0.647424       -17.6173 
  32   2.0000      -0.438986       -11.9454 
  33   2.0000      -0.438273       -11.9260 
  34   2.0000      -0.323681        -8.8078 
  35   2.0000      -0.249436        -6.7875 
  36   2.0000      -0.249268        -6.7829 
  37   2.0000      -0.240174        -6.5355 
  38   2.0000      -0.239955        -6.5295 
  39   2.0000      -0.222061        -6.0426 
  40   0.0000       0.000865         0.0235 
  41   0.0000       0.093144         2.5346 
  42   0.0000       0.163459         4.4480 
  43   0.0000       0.163828         4.4580 
  44   0.0000       0.374807        10.1990 
  45   0.0000       0.395741        10.7687 
  46   0.0000       0.425781        11.5861 
  47   0.0000       0.427638        11.6366 
  48   0.0000       0.528607        14.3841 
  49   0.0000       0.572601        15.5813 
  50   0.0000       0.574543        15.6341 
  51   0.0000       0.574842        15.6423 
  52   0.0000       0.599248        16.3064 
  53   0.0000       0.599520        16.3138 
  54   0.0000       0.600823        16.3492 
  55   0.0000       0.600869        16.3505 
  56   0.0000       0.618028        16.8174 
  57   0.0000       0.636759        17.3271 
  58   0.0000       0.637141        17.3375 
  59   0.0000       0.665789        18.1170 
  60   0.0000       0.666354        18.1324 
  61   0.0000       0.721516        19.6334 
  62   0.0000       0.722240        19.6532 
  63   0.0000       0.763176        20.7671 
  64   0.0000       0.763790        20.7838 
  65   0.0000       0.767800        20.8929 
  66   0.0000       0.830255        22.5924 
  67   0.0000       1.054877        28.7047 
  68   0.0000       1.140862        31.0444 
  69   0.0000       1.265737        34.4424 
  70   0.0000       1.267864        34.5003 
  71   0.0000       1.487572        40.4789 
  72   0.0000       1.682639        45.7869 
  73   0.0000       1.684318        45.8326 
  74   0.0000       1.880483        51.1705 
  75   0.0000       2.088041        56.8185 
  76   0.0000       2.205599        60.0174 
  77   0.0000       2.207663        60.0736 
  78   0.0000       2.276309        61.9415 
  79   0.0000       2.279507        62.0285 
  80   0.0000       2.868574        78.0579 
  81   0.0000       2.927726        79.6675 
  82   0.0000       2.930477        79.7423 
  83   0.0000       3.524168        95.8975 
  84   0.0000       3.524186        95.8980 
  85   0.0000       3.527375        95.9848 
  86   0.0000       3.527775        95.9956 
  87   0.0000       3.532171        96.1153 
  88   0.0000       3.532559        96.1258 
  89   0.0000       3.576488        97.3212 
  90   0.0000       3.577160        97.3395 
  91   0.0000       3.709599       100.9433 
  92   0.0000       3.859590       105.0248 

                    ********************************
                    * MULLIKEN POPULATION ANALYSIS *
                    ********************************

-----------------------
MULLIKEN ATOMIC CHARGES
-----------------------
   0 C :   -0.097358
   1 Br:   -0.643066
   2 H :    0.130989
   3 H :    0.132178
   4 H :    0.131011
   5 Br:   -0.653754
Sum of atomic charges:   -1.0000000

--------------------------------
MULLIKEN REDUCED ORBITAL CHARGES
--------------------------------
  0 C s       :     3.239247  s :     3.239247
      pz      :     1.012891  p :     2.834760
      px      :     0.767629
      py      :     1.054240
      dz2     :     0.004525  d :     0.023351
      dxz     :     0.004528
      dyz     :     0.005195
      dx2y2   :     0.006497
      dxy     :     0.002605
  1 Brs       :     7.984842  s :     7.984842
      pz      :     5.948167  p :    17.646282
      px      :     5.711990
      py      :     5.986125
      dz2     :     2.001474  d :    10.011942
      dxz     :     2.003695
      dyz     :     2.000416
      dx2y2   :     2.004100
      dxy     :     2.002257
  2 H s       :     0.843892  s :     0.843892
      pz      :     0.010809  p :     0.025119
      px      :     0.005017
      py      :     0.009293
  3 H s       :     0.842617  s :     0.842617
      pz      :     0.004421  p :     0.025205
      px      :     0.005143
      py      :     0.015641
  4 H s       :     0.843970  s :     0.843970
      pz      :     0.013360  p :     0.025019
      px      :     0.005887
      py      :     0.005772
  5 Brs       :     7.986964  s :     7.986964
      pz      :     5.948406  p :    17.653028
      px      :     5.715784
      py      :     5.988838
      dz2     :     2.001601  d :    10.013762
      dxz     :     2.004399
      dyz     :     2.000536
      dx2y2   :     2.004802
      dxy     :     2.002426


                     *******************************
                     * LOEWDIN POPULATION ANALYSIS *
                     *******************************

----------------------
LOEWDIN ATOMIC CHARGES
----------------------
   0 C :   -0.044963
   1 Br:   -0.529951
   2 H :    0.034204
   3 H :    0.033478
   4 H :    0.034293
   5 Br:   -0.527060

-------------------------------
LOEWDIN REDUCED ORBITAL CHARGES
-------------------------------
  0 C s       :     2.986993  s :     2.986993
      pz      :     1.061923  p :     3.004808
      px      :     0.844253
      py      :     1.098632
      dz2     :     0.010731  d :     0.053162
      dxz     :     0.009634
      dyz     :     0.012919
      dx2y2   :     0.014305
      dxy     :     0.005573
  1 Brs       :     7.937760  s :     7.937760
      pz      :     5.933281  p :    17.578662
      px      :     5.669461
      py      :     5.975920
      dz2     :     2.001577  d :    10.013530
      dxz     :     2.004283
      dyz     :     2.000413
      dx2y2   :     2.005007
      dxy     :     2.002250
  2 H s       :     0.889448  s :     0.889448
      pz      :     0.032660  p :     0.076348
      px      :     0.015810
      py      :     0.027878
  3 H s       :     0.889740  s :     0.889740
      pz      :     0.012397  p :     0.076782
      px      :     0.016180
      py      :     0.048205
  4 H s       :     0.889411  s :     0.889411
      pz      :     0.041367  p :     0.076296
      px      :     0.018268
      py      :     0.016661
  5 Brs       :     7.933717  s :     7.933717
      pz      :     5.931895  p :    17.578183
      px      :     5.668739
      py      :     5.977549
      dz2     :     2.001687  d :    10.015160
      dxz     :     2.004919
      dyz     :     2.000532
      dx2y2   :     2.005617
      dxy     :     2.002406


                      *****************************
                      * MAYER POPULATION ANALYSIS *
                      *****************************

  NA   - Mulliken gross atomic population
  ZA   - Total nuclear charge
  QA   - Mulliken gross atomic charge
  VA   - Mayer's total valence
  BVA  - Mayer's bonded valence
  FA   - Mayer's free valence

  ATOM       NA         ZA         QA         VA         BVA        FA
  0 C      6.0974     6.0000    -0.0974     3.8109     3.8109    -0.0000
  1 Br    35.6431    35.0000    -0.6431     0.6030     0.6030    -0.0000
  2 H      0.8690     1.0000     0.1310     0.9816     0.9816    -0.0000
  3 H      0.8678     1.0000     0.1322     0.9815     0.9815    -0.0000
  4 H      0.8690     1.0000     0.1310     0.9822     0.9822    -0.0000
  5 Br    35.6538    35.0000    -0.6538     0.5992     0.5992    -0.0000

  Mayer bond orders larger than 0.100000
B(  0-C ,  1-Br) :   0.4565 B(  0-C ,  2-H ) :   0.9691 B(  0-C ,  3-H ) :   0.9683 
B(  0-C ,  4-H ) :   0.9690 B(  0-C ,  5-Br) :   0.4479 B(  1-Br,  5-Br) :   0.1261 



------------------
HIRSHFELD ANALYSIS
------------------

Total integrated alpha density =     40.001188147
Total integrated beta density  =     40.001188147

  ATOM     CHARGE      SPIN    
   0 C   -0.001578    0.000000
   1 Br  -0.568656    0.000000
   2 H    0.045309    0.000000
   3 H    0.044879    0.000000
   4 H    0.044938    0.000000
   5 Br  -0.567269    0.000000

  TOTAL  -1.002376    0.000000

-------
TIMINGS
-------

Total SCF time: 0 days 0 hours 0 min 6 sec 

Total time                  ....       6.022 sec
Sum of individual times     ....       5.640 sec  ( 93.7%)

Fock matrix formation       ....       5.097 sec  ( 84.6%)
  Split-RI-J                ....       1.024 sec  ( 20.1% of F)
  Chain of spheres X        ....       2.041 sec  ( 40.0% of F)
  XC integration            ....       0.165 sec  (  3.2% of F)
    Basis function eval.    ....       0.062 sec  ( 37.7% of XC)
    Density eval.           ....       0.025 sec  ( 15.0% of XC)
    XC-Functional eval.     ....       0.022 sec  ( 13.4% of XC)
    XC-Potential eval.      ....       0.033 sec  ( 20.2% of XC)
Diagonalization             ....       0.005 sec  (  0.1%)
Density matrix formation    ....       0.002 sec  (  0.0%)
Population analysis         ....       0.012 sec  (  0.2%)
Initial guess               ....       0.134 sec  (  2.2%)
Orbital Transformation      ....       0.000 sec  (  0.0%)
Orbital Orthonormalization  ....       0.000 sec  (  0.0%)
DIIS solution               ....       0.002 sec  (  0.0%)
SOSCF solution              ....       0.003 sec  (  0.0%)
Grid generation             ....       0.385 sec  (  6.4%)


-------------------------------------------------------------------------------
                          DFT DISPERSION CORRECTION                            
                                                                               
                              DFTD3 V3.1  Rev 1                                
                          USING Becke-Johnson damping                          
-------------------------------------------------------------------------------
The PBE0 functional is recognized
Active option DFTDOPT                   ...         4   

molecular C6(AA) [au] = 1260.076402 


            DFT-D V3
 parameters
 s6 scaling factor         :     1.0000 
 a1 scaling factor         :     0.4145 
 s8 scaling factor         :     1.2177 
 a2 scaling factor         :     4.8593 
 ad hoc parameters k1-k3   :    16.0000     1.3333    -4.0000 

 Edisp/kcal,au: -2.385780337579  -0.003801982570 
 E6   /kcal   :  -1.359162819 
 E8   /kcal   :  -1.026617519 
 % E8         :  43.030680681 

-------------------------   ----------------
Dispersion correction           -0.003801983
-------------------------   ----------------


-------------------------   --------------------
FINAL SINGLE POINT ENERGY     -5187.069988523617
-------------------------   --------------------

[1631208293.510342] [comp0805:249155:0]            sys.c:618  UCX  ERROR shmget(size=2097152 flags=0xfb0) for mm_recv_desc failed: Operation not permitted, please check shared memory limits by 'ipcs -l'
[1631208293.516296] [comp0805:249153:0]            sys.c:618  UCX  ERROR shmget(size=2097152 flags=0xfb0) for mm_recv_desc failed: Operation not permitted, please check shared memory limits by 'ipcs -l'
[1631208293.541039] [comp0805:249154:0]            sys.c:618  UCX  ERROR shmget(size=2097152 flags=0xfb0) for mm_recv_desc failed: Operation not permitted, please check shared memory limits by 'ipcs -l'
[1631208293.542127] [comp0805:249156:0]            sys.c:618  UCX  ERROR shmget(size=2097152 flags=0xfb0) for mm_recv_desc failed: Operation not permitted, please check shared memory limits by 'ipcs -l'
[1631208293.549807] [comp0805:249154:0]            sys.c:618  UCX  ERROR shmget(size=2097152 flags=0xb80) for ucp_am_bufs failed: Operation not permitted, please check shared memory limits by 'ipcs -l'
[1631208293.550589] [comp0805:249155:0]            sys.c:618  UCX  ERROR shmget(size=2097152 flags=0xb80) for ucp_am_bufs failed: Operation not permitted, please check shared memory limits by 'ipcs -l'
[1631208293.550582] [comp0805:249156:0]            sys.c:618  UCX  ERROR shmget(size=2097152 flags=0xb80) for ucp_am_bufs failed: Operation not permitted, please check shared memory limits by 'ipcs -l'
[1631208293.551300] [comp0805:249153:0]            sys.c:618  UCX  ERROR shmget(size=2097152 flags=0xb80) for ucp_am_bufs failed: Operation not permitted, please check shared memory limits by 'ipcs -l'


           ************************************************************
           *        Program running with 4 parallel MPI-processes     *
           *              working on a common directory               *
           ************************************************************
------------------------------------------------------------------------------
                         ORCA SCF GRADIENT CALCULATION
------------------------------------------------------------------------------

Gradient of the Kohn-Sham DFT energy:
Kohn-Sham wavefunction type      ... RKS
Hartree-Fock exchange scaling    ...    0.250
Number of operators              ...    1
Number of atoms                  ...    6
Basis set dimensions             ...   93
Integral neglect threshold       ... 2.5e-11
Integral primitive cutoff        ... 2.5e-12

Nuclear repulsion gradient       ... done
One Electron Gradient            ... done
Pre-screening matrix             ... done
RI-J gradient                    ... done
COSX-gradient                    ... done
Exchange-correlation gradient    ... done
Dispersion correction            ... done

------------------
CARTESIAN GRADIENT
------------------

   1   C   :    0.001732380    0.000342933   -0.000644906
   2   Br  :   -0.004848441   -0.000852742    0.002138841
   3   H   :   -0.003113197   -0.000621799    0.001307632
   4   H   :   -0.003267025   -0.000325665    0.001670946
   5   H   :   -0.002860063   -0.000707303    0.001735122
   6   Br  :    0.012344919    0.002367597   -0.005706283

Difference to translation invariance:
           :   -0.0000114262    0.0002030201    0.0005013525

Norm of the cartesian gradient     ...    0.0161232452
RMS gradient                       ...    0.0038002853
MAX gradient                       ...    0.0123449194

-------
TIMINGS
-------

Total SCF gradient time            ...        1.118 sec

One electron gradient       ....       0.005 sec  (  0.5%)
Prescreening matrices       ....       0.098 sec  (  8.8%)
RI-J Coulomb gradient       ....       0.094 sec  (  8.4%)
COSX gradient               ....       0.310 sec  ( 27.7%)
XC gradient                 ....       0.123 sec  ( 11.0%)
CPCM gradient               ....       0.135 sec  ( 12.1%)
   A-Matrix (El+Nuc)        ....       0.003 sec  (  0.2%)
   Potential                ....       0.132 sec  ( 11.8%)
[1631208297.065027] [comp0805:249177:0]            sys.c:618  UCX  ERROR shmget(size=2097152 flags=0xfb0) for mm_recv_desc failed: Operation not permitted, please check shared memory limits by 'ipcs -l'
[1631208297.067929] [comp0805:249175:0]            sys.c:618  UCX  ERROR shmget(size=2097152 flags=0xfb0) for mm_recv_desc failed: Operation not permitted, please check shared memory limits by 'ipcs -l'
[1631208297.091127] [comp0805:249176:0]            sys.c:618  UCX  ERROR shmget(size=2097152 flags=0xfb0) for mm_recv_desc failed: Operation not permitted, please check shared memory limits by 'ipcs -l'
[1631208297.091888] [comp0805:249179:0]            sys.c:618  UCX  ERROR shmget(size=2097152 flags=0xfb0) for mm_recv_desc failed: Operation not permitted, please check shared memory limits by 'ipcs -l'
[1631208297.099997] [comp0805:249179:0]            sys.c:618  UCX  ERROR shmget(size=2097152 flags=0xb80) for ucp_am_bufs failed: Operation not permitted, please check shared memory limits by 'ipcs -l'
[1631208297.100656] [comp0805:249175:0]            sys.c:618  UCX  ERROR shmget(size=2097152 flags=0xb80) for ucp_am_bufs failed: Operation not permitted, please check shared memory limits by 'ipcs -l'
[1631208297.101545] [comp0805:249177:0]            sys.c:618  UCX  ERROR shmget(size=2097152 flags=0xb80) for ucp_am_bufs failed: Operation not permitted, please check shared memory limits by 'ipcs -l'


           ************************************************************
           *        Program running with 4 parallel MPI-processes     *
           *              working on a common directory               *
           ************************************************************
[1631208297.121673] [comp0805:249176:0]            sys.c:618  UCX  ERROR shmget(size=2097152 flags=0xb80) for ucp_am_bufs failed: Operation not permitted, please check shared memory limits by 'ipcs -l'

-------------------------------------------------------------------------------
                               ORCA SCF HESSIAN
-------------------------------------------------------------------------------

Hessian of the Kohn-Sham DFT energy:
Kohn-Sham wavefunction type                      ... RKS
Hartree-Fock exchange scaling                    ...    0.250
Number of operators                              ...    1
Number of atoms                                  ...    6
Basis set dimensions                             ...   93
Integral neglect threshold                       ... 2.5e-11
Integral primitive cutoff                        ... 2.5e-12

Setting up DFT Hessian calculations              ... 
Electron density on the grid                     ... found on disk
Electron density on the final grid               ... found on disk
Building xc-kernel on the grid                   ... done   (      0.0 sec)
Building xc-kernel on the final grid             ... done   (      0.0 sec)
                                                     done   (      0.1 sec)

Nuclear repulsion Hessian                        ... done   (      0.0 sec)

----------------------------------------------
Forming right-hand sides of CP-SCF equations     ...
----------------------------------------------
One electron integral derivatives                ... done   (      1.3 sec)
Transforming the overlap derivative matrices     ... done   (      0.0 sec)
Adding tr(S(x)F(y) C-PCM term to the hessian     ... done   (      0.2 sec)
Making the Q(x) pseudodensities                  ... done   (      0.0 sec)
Adding the E*S(x)*S(y) terms to the Hessian      ... done   (      0.0 sec)
Calculating energy weighted overlap derivatives  ... done   (      0.0 sec)
Two electron integral derivatives (RI)           ... done   (      0.9 sec)
Exchange-correlation integral derivatives        ... done   (      0.8 sec)
tr(F(y)Q(x)) contribution to the Hessian         ... done   (      0.0 sec)
Response fock operator R(S(x)) (RIJCOSX)         ... done   (      0.7 sec)
XC Response fock operator R(S(x))                ... done   (      0.2 sec)
tr(F(y)S(x)) contribution to the Hessian         ... done   (      0.0 sec)
Transforming and finalizing RHSs                 ... done   (      0.0 sec)

----------------------------------------------
Solving the CP-SCF equations (RIJCOSX)           ...
----------------------------------------------
     CP-SCF ITERATION   0: 
     CP-SCF ITERATION   1:      0.000714017291
     CP-SCF ITERATION   2:      0.000052720687
     CP-SCF ITERATION   3:      0.000005941940
     CP-SCF ITERATION   4:      0.000000191118
     CP-SCF ITERATION   5:      0.000000006875

                                                 ... done   (      3.6 sec)
Forming perturbed density Hessian contributions  ... done   (      0.0 sec)
Calculating [Q*(d^2 A/dXdY)*Q  ] C-PCM term      ... done   (      0.0 sec)
Calculating [d^2(V_N)/(dXdY)*Q ] C-PCM term      ... done   (      0.0 sec)
Calculating [d^2(V_el)/(dXdY)*Q] C-PCM term      ... done   (      0.2 sec)
Calculating C-PCM term that depends on dQ/dX     ... done   (      0.0 sec)
2nd integral derivative contribs (RI)            ... done   (      4.1 sec)
Exchange-correlation Hessian                     ... done   (      0.9 sec)
Dispersion correction in the Hessian             ... done   (      0.3 sec)
Dipol derivatives                                ... done   (      0.1 sec)

Total SCF Hessian time: 0 days 0 hours 0 min 14 sec 

Writing the Hessian file to the disk             ... done


Maximum memory used throughout the entire calculation: 135.4 MB

-----------------------
VIBRATIONAL FREQUENCIES
-----------------------

Scaling factor for frequencies =  1.000000000  (already applied!)

   0:         0.00 cm**-1
   1:         0.00 cm**-1
   2:         0.00 cm**-1
   3:         0.00 cm**-1
   4:         0.00 cm**-1
   5:         0.00 cm**-1
   6:      -454.00 cm**-1 ***imaginary mode***
   7:       158.15 cm**-1
   8:       159.06 cm**-1
   9:       160.42 cm**-1
  10:       960.42 cm**-1
  11:       968.36 cm**-1
  12:      1000.39 cm**-1
  13:      1337.81 cm**-1
  14:      1340.19 cm**-1
  15:      3179.08 cm**-1
  16:      3404.81 cm**-1
  17:      3409.83 cm**-1


------------
NORMAL MODES
------------

These modes are the Cartesian displacements weighted by the diagonal matrix
M(i,i)=1/sqrt(m[i]) where m[i] is the mass of the displaced atom
Thus, these vectors are normalized but *not* orthogonal

                  0          1          2          3          4          5    
      0       0.000000   0.000000   0.000000   0.000000   0.000000   0.000000
      1       0.000000   0.000000   0.000000   0.000000   0.000000   0.000000
      2       0.000000   0.000000   0.000000   0.000000   0.000000   0.000000
      3       0.000000   0.000000   0.000000   0.000000   0.000000   0.000000
      4       0.000000   0.000000   0.000000   0.000000   0.000000   0.000000
      5       0.000000   0.000000   0.000000   0.000000   0.000000   0.000000
      6       0.000000   0.000000   0.000000   0.000000   0.000000   0.000000
      7       0.000000   0.000000   0.000000   0.000000   0.000000   0.000000
      8       0.000000   0.000000   0.000000   0.000000   0.000000   0.000000
      9       0.000000   0.000000   0.000000   0.000000   0.000000   0.000000
     10       0.000000   0.000000   0.000000   0.000000   0.000000   0.000000
     11       0.000000   0.000000   0.000000   0.000000   0.000000   0.000000
     12       0.000000   0.000000   0.000000   0.000000   0.000000   0.000000
     13       0.000000   0.000000   0.000000   0.000000   0.000000   0.000000
     14       0.000000   0.000000   0.000000   0.000000   0.000000   0.000000
     15       0.000000   0.000000   0.000000   0.000000   0.000000   0.000000
     16       0.000000   0.000000   0.000000   0.000000   0.000000   0.000000
     17       0.000000   0.000000   0.000000   0.000000   0.000000   0.000000
                  6          7          8          9         10         11    
      0      -0.907319   0.152351   0.155569   0.095834   0.000365   0.003281
      1      -0.151238   0.165524  -0.377483  -0.473043  -0.001249  -0.002314
      2       0.372321   0.433515   0.246530   0.026222  -0.003034  -0.000334
      3       0.071155   0.025141  -0.165483   0.106486   0.001285  -0.000461
      4       0.012710  -0.008955   0.010244   0.063732   0.001316   0.003100
      5      -0.029146  -0.056906   0.038762  -0.049846   0.002771  -0.001187
      6      -0.007494   0.145986   0.163833   0.076043  -0.727436  -0.257727
      7      -0.017326   0.208130  -0.356076  -0.479996  -0.110918  -0.022626
      8      -0.021989   0.409542   0.228196   0.029250   0.322025   0.099616
      9       0.029256   0.167942   0.199976   0.099546   0.148296   0.685516
     10       0.036180   0.176827  -0.375934  -0.479021   0.031441   0.137159
     11      -0.019338   0.493233   0.270524   0.033712  -0.040172  -0.289538
     12       0.017207   0.141678   0.162279   0.079675   0.531613  -0.547767
     13      -0.008530   0.120449  -0.415964  -0.495513   0.095789  -0.070317
     14       0.021427   0.428719   0.233808   0.031378  -0.195998   0.213378
     15       0.064747  -0.053791   0.135460  -0.124112  -0.000740   0.001482
     16       0.009895  -0.022303   0.060984   0.025728  -0.001334  -0.003310
     17      -0.026572  -0.025060  -0.085063   0.044714  -0.003398   0.000941
                 12         13         14         15         16         17    
      0       0.006974  -0.031854  -0.020090   0.003291  -0.041544  -0.005422
      1       0.001569  -0.019267   0.089549   0.001066   0.023044   0.099292
      2      -0.002969  -0.085017  -0.012516  -0.002823  -0.091426   0.027301
      3       0.008804   0.000050   0.000043  -0.000150   0.000058   0.000014
      4       0.001320   0.000045  -0.000171  -0.000024  -0.000035  -0.000141
      5      -0.003674   0.000170   0.000025   0.000061   0.000132  -0.000038
      6      -0.476797   0.134695   0.250232  -0.130372   0.113953  -0.151507
      7      -0.071991  -0.331934  -0.518738  -0.363266   0.323139  -0.409350
      8       0.210646   0.141038   0.426248  -0.420088   0.364135  -0.477393
      9      -0.576352   0.282954   0.012409  -0.132328   0.073879   0.176622
     10      -0.115456   0.132170   0.093846   0.554690  -0.314751  -0.724468
     11       0.241273   0.744487   0.012301  -0.050991   0.022753   0.067963
     12      -0.522780  -0.044281  -0.026648   0.223374   0.299416   0.038031
     13      -0.081907   0.422328  -0.618610  -0.204265  -0.278019  -0.029064
     14       0.197750   0.105149  -0.292450   0.505110   0.683665   0.089343
     15       0.010029   0.000028  -0.000000   0.000151   0.000040   0.000004
     16       0.001842   0.000043  -0.000126   0.000026  -0.000027  -0.000115
     17      -0.004076   0.000112   0.000014  -0.000066   0.000106  -0.000028


-----------
IR SPECTRUM
-----------

 Mode    freq (cm**-1)   T**2         TX         TY         TZ
-------------------------------------------------------------------
   7:       158.15    9.361530  (  1.093113   1.067958   2.650679)
   8:       159.06    4.910755  (  0.250695  -1.782887   1.291983)
   9:       160.42    6.252807  (  0.842445  -2.354223  -0.026942)
  10:       960.42    0.551527  (  0.688811   0.210586   0.180888)
  11:       968.36    1.243193  (  0.738262   0.590291  -0.591370)
  12:      1000.39  172.944344  ( 11.985502   1.965294  -5.042788)
  13:      1337.81   10.732324  (  1.075076   0.708823   3.012326)
  14:      1340.19   11.138574  (  0.705558  -3.230845   0.449891)
  15:      3179.08    0.408484  ( -0.526751  -0.165457   0.321933)
  16:      3404.81   18.656816  (  1.775058  -0.994718   3.810056)
  17:      3409.83   18.675504  (  0.247761  -4.164625  -1.126949)

The first frequency considered to be a vibration is 7
The total number of vibrations considered is 11


--------------------------
THERMOCHEMISTRY AT 298.15K
--------------------------

Temperature         ... 298.15 K
Pressure            ... 1.00 atm
Total Mass          ... 174.83 AMU

Throughout the following assumptions are being made:
  (1) The electronic state is orbitally nondegenerate
  (2) There are no thermally accessible electronically excited states
  (3) Hindered rotations indicated by low frequency modes are not
      treated as such but are treated as vibrations and this may
      cause some error
  (4) All equations used are the standard statistical mechanics
      equations for an ideal gas
  (5) All vibrations are strictly harmonic

freq.     158.15  E(vib)   ...       0.39 
freq.     159.06  E(vib)   ...       0.39 
freq.     160.42  E(vib)   ...       0.39 
freq.     960.42  E(vib)   ...       0.03 
freq.     968.36  E(vib)   ...       0.03 
freq.    1000.39  E(vib)   ...       0.02 
freq.    1337.81  E(vib)   ...       0.01 
freq.    1340.19  E(vib)   ...       0.01 
freq.    3179.08  E(vib)   ...       0.00 
freq.    3404.81  E(vib)   ...       0.00 
freq.    3409.83  E(vib)   ...       0.00 

------------
INNER ENERGY
------------

The inner energy is: U= E(el) + E(ZPE) + E(vib) + E(rot) + E(trans)
    E(el)   - is the total energy from the electronic structure calculation
              = E(kin-el) + E(nuc-el) + E(el-el) + E(nuc-nuc)
    E(ZPE)  - the the zero temperature vibrational energy from the frequency calculation
    E(vib)  - the the finite temperature correction to E(ZPE) due to population
              of excited vibrational states
    E(rot)  - is the rotational thermal energy
    E(trans)- is the translational thermal energy

Summary of contributions to the inner energy U:
Electronic energy                ...  -5187.06998852 Eh
Zero point energy                ...      0.03662954 Eh      22.99 kcal/mol
Thermal vibrational correction   ...      0.00202293 Eh       1.27 kcal/mol
Thermal rotational correction    ...      0.00141627 Eh       0.89 kcal/mol
Thermal translational correction ...      0.00141627 Eh       0.89 kcal/mol
-----------------------------------------------------------------------
Total thermal energy                  -5187.02850351 Eh


Summary of corrections to the electronic energy:
(perhaps to be used in another calculation)
Total thermal correction                  0.00485547 Eh       3.05 kcal/mol
Non-thermal (ZPE) correction              0.03662954 Eh      22.99 kcal/mol
-----------------------------------------------------------------------
Total correction                          0.04148501 Eh      26.03 kcal/mol


--------
ENTHALPY
--------

The enthalpy is H = U + kB*T
                kB is Boltzmann's constant
Total free energy                 ...  -5187.02850351 Eh 
Thermal Enthalpy correction       ...      0.00094421 Eh       0.59 kcal/mol
-----------------------------------------------------------------------
Total Enthalpy                    ...  -5187.02755930 Eh


Note: Only C1 symmetry has been detected, increase convergence thresholds 
      if your molecule has a higher symmetry. Symmetry factor of 1.0 is   
      used for the rotational entropy correction. 
 

Note: Rotational entropy computed according to Herzberg 
Infrared and Raman Spectra, Chapter V,1, Van Nostrand Reinhold, 1945 
Point Group:  C1, Symmetry Number:   1  
Rotational constants in cm-1:     4.741883     0.018498     0.018498 

Vibrational entropy computed according to the QRRHO of S. Grimme
Chem.Eur.J. 2012 18 9955


-------
ENTROPY
-------

The entropy contributions are T*S = T*(S(el)+S(vib)+S(rot)+S(trans))
     S(el)   - electronic entropy
     S(vib)  - vibrational entropy
     S(rot)  - rotational entropy
     S(trans)- translational entropy
The entropies will be listed as mutliplied by the temperature to get
units of energy

Electronic entropy                ...      0.00000000 Eh      0.00 kcal/mol
Vibrational entropy               ...      0.00378517 Eh      2.38 kcal/mol
Rotational entropy                ...      0.01254340 Eh      7.87 kcal/mol
Translational entropy             ...      0.01966247 Eh     12.34 kcal/mol
-----------------------------------------------------------------------
Final entropy term                ...      0.03599104 Eh     22.58 kcal/mol

In case the symmetry of your molecule has not been determined correctly
or in case you have a reason to use a different symmetry number we print 
out the resulting rotational entropy values for sn=1,12 :
 --------------------------------------------------------
|  sn= 1 | S(rot)=       0.01254340 Eh      7.87 kcal/mol|
|  sn= 2 | S(rot)=       0.01188895 Eh      7.46 kcal/mol|
|  sn= 3 | S(rot)=       0.01150612 Eh      7.22 kcal/mol|
|  sn= 4 | S(rot)=       0.01123449 Eh      7.05 kcal/mol|
|  sn= 5 | S(rot)=       0.01102380 Eh      6.92 kcal/mol|
|  sn= 6 | S(rot)=       0.01085166 Eh      6.81 kcal/mol|
|  sn= 7 | S(rot)=       0.01070611 Eh      6.72 kcal/mol|
|  sn= 8 | S(rot)=       0.01058004 Eh      6.64 kcal/mol|
|  sn= 9 | S(rot)=       0.01046883 Eh      6.57 kcal/mol|
|  sn=10 | S(rot)=       0.01036935 Eh      6.51 kcal/mol|
|  sn=11 | S(rot)=       0.01027936 Eh      6.45 kcal/mol|
|  sn=12 | S(rot)=       0.01019720 Eh      6.40 kcal/mol|
 --------------------------------------------------------


-------------------
GIBBS FREE ENERGY
-------------------

The Gibbs free energy is G = H - T*S

Total enthalpy                    ...  -5187.02755930 Eh 
Total entropy correction          ...     -0.03599104 Eh    -22.58 kcal/mol
-----------------------------------------------------------------------
Final Gibbs free energy         ...  -5187.06355035 Eh

For completeness - the Gibbs free energy minus the electronic energy
G-E(el)                           ...      0.00643818 Eh      4.04 kcal/mol

[1631208313.809229] [comp0805:249215:0]            sys.c:618  UCX  ERROR shmget(size=2097152 flags=0xfb0) for mm_recv_desc failed: Operation not permitted, please check shared memory limits by 'ipcs -l'
[1631208313.815320] [comp0805:249212:0]            sys.c:618  UCX  ERROR shmget(size=2097152 flags=0xfb0) for mm_recv_desc failed: Operation not permitted, please check shared memory limits by 'ipcs -l'
[1631208313.834943] [comp0805:249216:0]            sys.c:618  UCX  ERROR shmget(size=2097152 flags=0xfb0) for mm_recv_desc failed: Operation not permitted, please check shared memory limits by 'ipcs -l'
[1631208313.846692] [comp0805:249213:0]            sys.c:618  UCX  ERROR shmget(size=2097152 flags=0xfb0) for mm_recv_desc failed: Operation not permitted, please check shared memory limits by 'ipcs -l'
[1631208313.854469] [comp0805:249215:0]            sys.c:618  UCX  ERROR shmget(size=2097152 flags=0xb80) for ucp_am_bufs failed: Operation not permitted, please check shared memory limits by 'ipcs -l'
[1631208313.854472] [comp0805:249212:0]            sys.c:618  UCX  ERROR shmget(size=2097152 flags=0xb80) for ucp_am_bufs failed: Operation not permitted, please check shared memory limits by 'ipcs -l'
[1631208313.855250] [comp0805:249216:0]            sys.c:618  UCX  ERROR shmget(size=2097152 flags=0xb80) for ucp_am_bufs failed: Operation not permitted, please check shared memory limits by 'ipcs -l'
[1631208313.855268] [comp0805:249213:0]            sys.c:618  UCX  ERROR shmget(size=2097152 flags=0xb80) for ucp_am_bufs failed: Operation not permitted, please check shared memory limits by 'ipcs -l'
Actual Hessian File stored as manual_327.001.hess
------------------------------------------------------------------------------
                         ORCA GEOMETRY RELAXATION STEP
------------------------------------------------------------------------------

Reading the OPT-File                    .... done
Getting information on internals        .... done
Copying old internal coords+grads       .... done
Making the new internal coordinates     .... (new redundants).... done
Validating the new internal coordinates .... (new redundants).... done
Calculating the B-matrix                .... done
Calculating the G,G- and P matrices     .... done
Transforming gradient to internals      .... done
Projecting the internal gradient        .... done
Number of atoms                         ....   6
Number of internal coordinates          ....  14
Current Energy                          .... -5187.069988524 Eh
Current gradient norm                   ....     0.016123245 Eh/bohr
Maximum allowed component of the step   ....  0.300
Current trust radius                    ....  0.100
Evaluating the initial hessian          ....  (read) 
(Reading Exact Hessian)...  
InHessName: manual_327.hess	The file <manual_327.hess> is opened as a .hess file
done
done
Diagonalizing the Hessian               .... done
Dimension of the hessian                .... 14
Lowest eigenvalues of the non projected Hessian:
 -0.029690814 -0.000003601  0.000002142  0.072324227  0.073267265
done
Projecting the Hessian                  .... done
Diagonalizing the Hessian               .... done
Dimension of the hessian                ....  14
Lowest eigenvalues of the Hessian:
 -0.029707593  0.072326607  0.073239702  0.075895575  0.085461581
Hessian has   1 negative eigenvalues
Taking P-RFO step
Searching for lambda that maximizes along the lowest mode
TS mode is mode number   0 with eigenvalue  -0.02970759 and components:
   1.    0.62946071
   2.   -0.00293581
   3.   -0.00297766
   4.   -0.00297235
   5.   -0.59231678
   6.   -0.20940192
   7.    0.02664943
   8.   -0.20276287
   9.    0.02636353
  10.    0.02713600
  11.    0.20019579
  12.    0.21052549
  13.    0.20247214
  14.   -0.20103702

Lambda that maximizes along the TS mode:       0.00000785
Searching for lambda that minimizes along all other modes
In cycle   1: lambdaN =  -0.00307876   step =   0.00307876
In cycle   2: lambdaN =  -0.00308243   step =   0.00000367
In cycle   3: lambdaN =  -0.00308243   step =   0.00000000
Lambda that minimizes along all other modes:  -0.00308243
Calculated stepsize too large (   0.1831 >    0.1000). Scaled with    0.5461.
The final length of the internal step   ....       0.1000
Converting the step to cartesian space:
 Initial RMS(Int)=    0.0267261242
Transforming coordinates:
 Iter   0:  RMS(Cart)=    0.0254609145 RMS(Int)=    0.0267404051
 Iter   1:  RMS(Cart)=    0.0001494933 RMS(Int)=    0.0001446290
 Iter   2:  RMS(Cart)=    0.0000019397 RMS(Int)=    0.0000018577
 Iter   3:  RMS(Cart)=    0.0000000395 RMS(Int)=    0.0000000405
done
Storing new coordinates                 .... done

                                .--------------------.
          ----------------------|Geometry convergence|-------------------------
          Item                value                   Tolerance       Converged
          ---------------------------------------------------------------------
          RMS gradient        0.0046122602            0.0001000000      NO
          MAX gradient        0.0138147443            0.0003000000      NO
          RMS step            0.0267261242            0.0020000000      NO
          MAX step            0.0745454906            0.0040000000      NO
          ........................................................
          Max(Bonds)      0.0394      Max(Angles)    1.20
          Max(Dihed)        0.00      Max(Improp)    0.00
          ---------------------------------------------------------------------

The optimization has not yet converged - more geometry cycles are needed


    ---------------------------------------------------------------------------
                         Redundant Internal Coordinates
                            (Angstroem and degrees)

        Definition                    Value    dE/dq     Step     New-Value  comp.(TS mode)
    ----------------------------------------------------------------------------
     1. B(Br  1,C   0)                2.3945 -0.005338  0.0271    2.4217          0.63
     2. B(H   2,C   0)                1.0836  0.000255  0.0003    1.0838   
     3. B(H   3,C   0)                1.0834  0.000297  0.0003    1.0837   
     4. B(H   4,C   0)                1.0843  0.000618 -0.0003    1.0840   
     5. B(Br  5,C   0)                2.3772 -0.013815  0.0394    2.4166          0.59
     6. A(Br  1,C   0,H   3)           91.63  0.003090   -0.87     90.76   
     7. A(H   2,C   0,H   3)          119.88 -0.000225    0.03    119.91   
     8. A(Br  1,C   0,H   4)           92.30  0.004265   -1.20     91.10   
     9. A(H   2,C   0,H   4)          119.64 -0.000549    0.17    119.81   
    10. A(H   3,C   0,H   4)          120.05 -0.000600    0.18    120.23   
    11. A(H   2,C   0,Br  5)           88.21 -0.003888    1.14     89.35   
    12. A(H   3,C   0,Br  5)           87.23 -0.004436    1.20     88.43   
[...]

 
[1631208345.487746] [comp0805:249479:0]            sys.c:618  UCX  ERROR shmget(size=2097152 flags=0xfb0) for mm_recv_desc failed: Operation not permitted, please check shared memory limits by 'ipcs -l'
[1631208345.488334] [comp0805:249477:0]            sys.c:618  UCX  ERROR shmget(size=2097152 flags=0xfb0) for mm_recv_desc failed: Operation not permitted, please check shared memory limits by 'ipcs -l'
[1631208345.489014] [comp0805:249478:0]            sys.c:618  UCX  ERROR shmget(size=2097152 flags=0xfb0) for mm_recv_desc failed: Operation not permitted, please check shared memory limits by 'ipcs -l'
[1631208345.489183] [comp0805:249480:0]            sys.c:618  UCX  ERROR shmget(size=2097152 flags=0xfb0) for mm_recv_desc failed: Operation not permitted, please check shared memory limits by 'ipcs -l'
[1631208345.546111] [comp0805:249477:0]            sys.c:618  UCX  ERROR shmget(size=2097152 flags=0xb80) for ucp_am_bufs failed: Operation not permitted, please check shared memory limits by 'ipcs -l'
[1631208345.547077] [comp0805:249480:0]            sys.c:618  UCX  ERROR shmget(size=2097152 flags=0xb80) for ucp_am_bufs failed: Operation not permitted, please check shared memory limits by 'ipcs -l'
[1631208345.547101] [comp0805:249478:0]            sys.c:618  UCX  ERROR shmget(size=2097152 flags=0xb80) for ucp_am_bufs failed: Operation not permitted, please check shared memory limits by 'ipcs -l'


           ************************************************************
           *        Program running with 4 parallel MPI-processes     *
           *              working on a common directory               *
           ************************************************************
[1631208345.567404] [comp0805:249479:0]            sys.c:618  UCX  ERROR shmget(size=2097152 flags=0xb80) for ucp_am_bufs failed: Operation not permitted, please check shared memory limits by 'ipcs -l'

-------------------------------------------------------------------------------
                               ORCA SCF HESSIAN
-------------------------------------------------------------------------------

Hessian of the Kohn-Sham DFT energy:
Kohn-Sham wavefunction type                      ... RKS
Hartree-Fock exchange scaling                    ...    0.250
Number of operators                              ...    1
Number of atoms                                  ...    6
Basis set dimensions                             ...   93
Integral neglect threshold                       ... 2.5e-11
Integral primitive cutoff                        ... 2.5e-12

Setting up DFT Hessian calculations              ... 
Electron density on the grid                     ... found on disk
Electron density on the final grid               ... found on disk
Building xc-kernel on the grid                   ... done   (      0.0 sec)
Building xc-kernel on the final grid             ... done   (      0.0 sec)
                                                     done   (      0.1 sec)

Nuclear repulsion Hessian                        ... done   (      0.0 sec)

----------------------------------------------
Forming right-hand sides of CP-SCF equations     ...
----------------------------------------------
One electron integral derivatives                ... done   (      1.2 sec)
Transforming the overlap derivative matrices     ... done   (      0.0 sec)
Adding tr(S(x)F(y) C-PCM term to the hessian     ... done   (      0.2 sec)
Making the Q(x) pseudodensities                  ... done   (      0.0 sec)
Adding the E*S(x)*S(y) terms to the Hessian      ... done   (      0.0 sec)
Calculating energy weighted overlap derivatives  ... done   (      0.0 sec)
Two electron integral derivatives (RI)           ... done   (      0.9 sec)
Exchange-correlation integral derivatives        ... done   (      0.7 sec)
tr(F(y)Q(x)) contribution to the Hessian         ... done   (      0.0 sec)
Response fock operator R(S(x)) (RIJCOSX)         ... done   (      0.7 sec)
XC Response fock operator R(S(x))                ... done   (      0.2 sec)
tr(F(y)S(x)) contribution to the Hessian         ... done   (      0.0 sec)
Transforming and finalizing RHSs                 ... done   (      0.0 sec)

----------------------------------------------
Solving the CP-SCF equations (RIJCOSX)           ...
----------------------------------------------
     CP-SCF ITERATION   0: 
     CP-SCF ITERATION   1:      0.000723224587
     CP-SCF ITERATION   2:      0.000027561921
     CP-SCF ITERATION   3:      0.000001126260
     CP-SCF ITERATION   4:      0.000000090208
     CP-SCF ITERATION   5:      0.000000008071

                                                 ... done   (      3.5 sec)
Forming perturbed density Hessian contributions  ... done   (      0.0 sec)
Calculating [Q*(d^2 A/dXdY)*Q  ] C-PCM term      ... done   (      0.0 sec)
Calculating [d^2(V_N)/(dXdY)*Q ] C-PCM term      ... done   (      0.0 sec)
Calculating [d^2(V_el)/(dXdY)*Q] C-PCM term      ... done   (      0.2 sec)
Calculating C-PCM term that depends on dQ/dX     ... done   (      0.0 sec)
2nd integral derivative contribs (RI)            ... done   (      3.9 sec)
Exchange-correlation Hessian                     ... done   (      0.9 sec)
Dispersion correction in the Hessian             ... done   (      0.3 sec)
Dipol derivatives                                ... done   (      0.1 sec)

Total SCF Hessian time: 0 days 0 hours 0 min 13 sec 

Writing the Hessian file to the disk             ... done


Maximum memory used throughout the entire calculation: 135.3 MB

-----------------------
VIBRATIONAL FREQUENCIES
-----------------------

Scaling factor for frequencies =  1.000000000  (already applied!)

   0:         0.00 cm**-1
   1:         0.00 cm**-1
   2:         0.00 cm**-1
   3:         0.00 cm**-1
   4:         0.00 cm**-1
   5:         0.00 cm**-1
   6:      -432.13 cm**-1 ***imaginary mode***
   7:       139.05 cm**-1
   8:       163.70 cm**-1
   9:       164.70 cm**-1
  10:       893.89 cm**-1
  11:       902.34 cm**-1
  12:       964.87 cm**-1
  13:      1340.83 cm**-1
  14:      1343.36 cm**-1
  15:      3180.74 cm**-1
  16:      3408.99 cm**-1
  17:      3411.67 cm**-1


------------
NORMAL MODES
------------

These modes are the Cartesian displacements weighted by the diagonal matrix
M(i,i)=1/sqrt(m[i]) where m[i] is the mass of the displaced atom
Thus, these vectors are normalized but *not* orthogonal

                  0          1          2          3          4          5    
      0       0.000000   0.000000   0.000000   0.000000   0.000000   0.000000
      1       0.000000   0.000000   0.000000   0.000000   0.000000   0.000000
      2       0.000000   0.000000   0.000000   0.000000   0.000000   0.000000
      3       0.000000   0.000000   0.000000   0.000000   0.000000   0.000000
      4       0.000000   0.000000   0.000000   0.000000   0.000000   0.000000
      5       0.000000   0.000000   0.000000   0.000000   0.000000   0.000000
      6       0.000000   0.000000   0.000000   0.000000   0.000000   0.000000
      7       0.000000   0.000000   0.000000   0.000000   0.000000   0.000000
      8       0.000000   0.000000   0.000000   0.000000   0.000000   0.000000
      9       0.000000   0.000000   0.000000   0.000000   0.000000   0.000000
     10       0.000000   0.000000   0.000000   0.000000   0.000000   0.000000
     11       0.000000   0.000000   0.000000   0.000000   0.000000   0.000000
     12       0.000000   0.000000   0.000000   0.000000   0.000000   0.000000
     13       0.000000   0.000000   0.000000   0.000000   0.000000   0.000000
     14       0.000000   0.000000   0.000000   0.000000   0.000000   0.000000
     15       0.000000   0.000000   0.000000   0.000000   0.000000   0.000000
     16       0.000000   0.000000   0.000000   0.000000   0.000000   0.000000
     17       0.000000   0.000000   0.000000   0.000000   0.000000   0.000000
                  6          7          8          9         10         11    
      0      -0.903819  -0.007694  -0.053161  -0.192135  -0.003280  -0.000251
      1      -0.150883  -0.019182  -0.394734   0.282495  -0.000258   0.000171
      2       0.372231  -0.027166  -0.288984  -0.351266   0.001212  -0.000285
      3       0.069031  -0.643895   0.007160   0.018881  -0.000718  -0.001151
      4       0.012130  -0.106144   0.037619  -0.026542  -0.002141   0.002615
      5      -0.027644   0.267478   0.026401   0.032843  -0.002543  -0.001840
      6      -0.077468  -0.005958  -0.059343  -0.174070   0.760150  -0.009666
      7      -0.013344  -0.013729  -0.389482   0.240081   0.125973  -0.003196
      8       0.034178  -0.020043  -0.302458  -0.323129  -0.310860   0.005101
      9      -0.036815  -0.006936  -0.049611  -0.216608  -0.353356   0.647821
     10      -0.007666  -0.029997  -0.398820   0.277313  -0.058036   0.107305
     11       0.016831  -0.027634  -0.279689  -0.413340   0.145251  -0.264013
     12      -0.032843  -0.008349  -0.053867  -0.193710  -0.366298  -0.646236
     13      -0.006960  -0.015932  -0.417250   0.345457  -0.062426  -0.107598
     14       0.015930  -0.038299  -0.300127  -0.334254   0.149119   0.264120
     15       0.068692   0.645320   0.002885   0.017374   0.000700   0.001291
     16       0.010905   0.109780   0.036928  -0.026810   0.002111  -0.002597
     17      -0.029156  -0.262309   0.028172   0.033469   0.002569   0.001818
                 12         13         14         15         16         17    
      0      -0.016198  -0.015144   0.034098   0.000081  -0.013671  -0.039253
      1      -0.002645  -0.065748  -0.063521  -0.000077  -0.078332   0.064948
      2       0.006538  -0.063440   0.057439   0.000253  -0.065166  -0.069713
      3      -0.008759  -0.000002  -0.000033  -0.000146   0.000007   0.000041
      4      -0.001457   0.000091   0.000076  -0.000024   0.000086  -0.000077
      5       0.003571   0.000076  -0.000070   0.000058   0.000075   0.000084
      6       0.507914  -0.045651  -0.279214  -0.116263   0.161159   0.027512
      7       0.084854   0.010527   0.616756  -0.365164   0.503593   0.099375
      8      -0.208495  -0.111036  -0.433969  -0.432155   0.597857   0.107408
      9       0.540835   0.238559  -0.151212  -0.117138  -0.109017   0.123233
     10       0.089286   0.061074  -0.148249   0.563365   0.514223  -0.599779
     11      -0.222580   0.607875  -0.431318  -0.058845  -0.058929   0.059002
     12       0.533924  -0.014035   0.028998   0.232816   0.108917   0.310258
     13       0.088360   0.696703   0.276857  -0.197406  -0.098461  -0.261390
     14      -0.218996   0.247295   0.190938   0.488511   0.226009   0.651326
     15      -0.008772   0.000022  -0.000029   0.000141   0.000016   0.000043
     16      -0.001457   0.000099   0.000069   0.000025   0.000091  -0.000076
     17       0.003647   0.000073  -0.000057  -0.000064   0.000071   0.000079


-----------
IR SPECTRUM
-----------

 Mode    freq (cm**-1)   T**2         TX         TY         TZ
-------------------------------------------------------------------
   7:       139.05    0.001880  ( -0.011350  -0.024743  -0.033751)
   8:       163.70   10.423730  ( -0.370583  -2.586669  -1.896191)
   9:       164.70   10.229237  ( -1.267111   1.840869  -2.287983)
  10:       893.89    0.248884  ( -0.453623  -0.006926   0.207512)
  11:       902.34    0.016229  (  0.026331   0.037880  -0.118748)
  12:       964.87  209.566142  (-13.175812  -2.197929   5.579715)
  13:      1340.83   11.048244  (  0.523033   2.360913   2.280520)
  14:      1343.36   10.952826  ( -1.214779   2.280983  -2.067427)
  15:      3180.74    0.002752  (  0.014376  -0.040746   0.029743)
  16:      3408.99   19.403143  (  0.604208   3.347516   2.798609)
  17:      3411.67   20.748202  (  1.745101  -2.868656   3.077928)

The first frequency considered to be a vibration is 7
The total number of vibrations considered is 11


--------------------------
THERMOCHEMISTRY AT 298.15K
--------------------------

Temperature         ... 298.15 K
Pressure            ... 1.00 atm
Total Mass          ... 174.83 AMU

Throughout the following assumptions are being made:
  (1) The electronic state is orbitally nondegenerate
  (2) There are no thermally accessible electronically excited states
  (3) Hindered rotations indicated by low frequency modes are not
      treated as such but are treated as vibrations and this may
      cause some error
  (4) All equations used are the standard statistical mechanics
      equations for an ideal gas
  (5) All vibrations are strictly harmonic

freq.     139.05  E(vib)   ...       0.42 
freq.     163.70  E(vib)   ...       0.39 
freq.     164.70  E(vib)   ...       0.39 
freq.     893.89  E(vib)   ...       0.03 
freq.     902.34  E(vib)   ...       0.03 
freq.     964.87  E(vib)   ...       0.03 
freq.    1340.83  E(vib)   ...       0.01 
freq.    1343.36  E(vib)   ...       0.01 
freq.    3180.74  E(vib)   ...       0.00 
freq.    3408.99  E(vib)   ...       0.00 
freq.    3411.67  E(vib)   ...       0.00 

------------
INNER ENERGY
------------

The inner energy is: U= E(el) + E(ZPE) + E(vib) + E(rot) + E(trans)
    E(el)   - is the total energy from the electronic structure calculation
              = E(kin-el) + E(nuc-el) + E(el-el) + E(nuc-nuc)
    E(ZPE)  - the the zero temperature vibrational energy from the frequency calculation
    E(vib)  - the the finite temperature correction to E(ZPE) due to population
              of excited vibrational states
    E(rot)  - is the rotational thermal energy
    E(trans)- is the translational thermal energy

Summary of contributions to the inner energy U:
Electronic energy                ...  -5187.07189403 Eh
Zero point energy                ...      0.03625511 Eh      22.75 kcal/mol
Thermal vibrational correction   ...      0.00207046 Eh       1.30 kcal/mol
Thermal rotational correction    ...      0.00141627 Eh       0.89 kcal/mol
Thermal translational correction ...      0.00141627 Eh       0.89 kcal/mol
-----------------------------------------------------------------------
Total thermal energy                  -5187.03073593 Eh


Summary of corrections to the electronic energy:
(perhaps to be used in another calculation)
Total thermal correction                  0.00490300 Eh       3.08 kcal/mol
Non-thermal (ZPE) correction              0.03625511 Eh      22.75 kcal/mol
-----------------------------------------------------------------------
Total correction                          0.04115811 Eh      25.83 kcal/mol


--------
ENTHALPY
--------

The enthalpy is H = U + kB*T
                kB is Boltzmann's constant
Total free energy                 ...  -5187.03073593 Eh 
Thermal Enthalpy correction       ...      0.00094421 Eh       0.59 kcal/mol
-----------------------------------------------------------------------
Total Enthalpy                    ...  -5187.02979172 Eh


Note: Only C1 symmetry has been detected, increase convergence thresholds 
      if your molecule has a higher symmetry. Symmetry factor of 1.0 is   
      used for the rotational entropy correction. 
 

Note: Rotational entropy computed according to Herzberg 
Infrared and Raman Spectra, Chapter V,1, Van Nostrand Reinhold, 1945 
Point Group:  C1, Symmetry Number:   1  
Rotational constants in cm-1:     4.727390     0.017399     0.017399 

Vibrational entropy computed according to the QRRHO of S. Grimme
Chem.Eur.J. 2012 18 9955


-------
ENTROPY
-------

The entropy contributions are T*S = T*(S(el)+S(vib)+S(rot)+S(trans))
     S(el)   - electronic entropy
     S(vib)  - vibrational entropy
     S(rot)  - rotational entropy
     S(trans)- translational entropy
The entropies will be listed as mutliplied by the temperature to get
units of energy

Electronic entropy                ...      0.00000000 Eh      0.00 kcal/mol
Vibrational entropy               ...      0.00387676 Eh      2.43 kcal/mol
Rotational entropy                ...      0.01260270 Eh      7.91 kcal/mol
Translational entropy             ...      0.01966247 Eh     12.34 kcal/mol
-----------------------------------------------------------------------
Final entropy term                ...      0.03614193 Eh     22.68 kcal/mol

In case the symmetry of your molecule has not been determined correctly
or in case you have a reason to use a different symmetry number we print 
out the resulting rotational entropy values for sn=1,12 :
 --------------------------------------------------------
|  sn= 1 | S(rot)=       0.01260270 Eh      7.91 kcal/mol|
|  sn= 2 | S(rot)=       0.01194824 Eh      7.50 kcal/mol|
|  sn= 3 | S(rot)=       0.01156541 Eh      7.26 kcal/mol|
|  sn= 4 | S(rot)=       0.01129379 Eh      7.09 kcal/mol|
|  sn= 5 | S(rot)=       0.01108310 Eh      6.95 kcal/mol|
|  sn= 6 | S(rot)=       0.01091096 Eh      6.85 kcal/mol|
|  sn= 7 | S(rot)=       0.01076541 Eh      6.76 kcal/mol|
|  sn= 8 | S(rot)=       0.01063933 Eh      6.68 kcal/mol|
|  sn= 9 | S(rot)=       0.01052812 Eh      6.61 kcal/mol|
|  sn=10 | S(rot)=       0.01042864 Eh      6.54 kcal/mol|
|  sn=11 | S(rot)=       0.01033865 Eh      6.49 kcal/mol|
|  sn=12 | S(rot)=       0.01025650 Eh      6.44 kcal/mol|
 --------------------------------------------------------


-------------------
GIBBS FREE ENERGY
-------------------

The Gibbs free energy is G = H - T*S

Total enthalpy                    ...  -5187.02979172 Eh 
Total entropy correction          ...     -0.03614193 Eh    -22.68 kcal/mol
-----------------------------------------------------------------------
Final Gibbs free energy         ...  -5187.06593365 Eh

For completeness - the Gibbs free energy minus the electronic energy
G-E(el)                           ...      0.00596038 Eh      3.74 kcal/mol

[1631208360.341569] [comp0805:249499:0]            sys.c:618  UCX  ERROR shmget(size=2097152 flags=0xfb0) for mm_recv_desc failed: Operation not permitted, please check shared memory limits by 'ipcs -l'
[1631208360.342886] [comp0805:249501:0]            sys.c:618  UCX  ERROR shmget(size=2097152 flags=0xfb0) for mm_recv_desc failed: Operation not permitted, please check shared memory limits by 'ipcs -l'
[1631208360.344234] [comp0805:249500:0]            sys.c:618  UCX  ERROR shmget(size=2097152 flags=0xfb0) for mm_recv_desc failed: Operation not permitted, please check shared memory limits by 'ipcs -l'
[1631208360.344406] [comp0805:249502:0]            sys.c:618  UCX  ERROR shmget(size=2097152 flags=0xfb0) for mm_recv_desc failed: Operation not permitted, please check shared memory limits by 'ipcs -l'
[1631208360.351977] [comp0805:249499:0]            sys.c:618  UCX  ERROR shmget(size=2097152 flags=0xb80) for ucp_am_bufs failed: Operation not permitted, please check shared memory limits by 'ipcs -l'
[1631208360.352620] [comp0805:249500:0]            sys.c:618  UCX  ERROR shmget(size=2097152 flags=0xb80) for ucp_am_bufs failed: Operation not permitted, please check shared memory limits by 'ipcs -l'
[1631208360.353607] [comp0805:249501:0]            sys.c:618  UCX  ERROR shmget(size=2097152 flags=0xb80) for ucp_am_bufs failed: Operation not permitted, please check shared memory limits by 'ipcs -l'
[1631208360.362175] [comp0805:249502:0]            sys.c:618  UCX  ERROR shmget(size=2097152 flags=0xb80) for ucp_am_bufs failed: Operation not permitted, please check shared memory limits by 'ipcs -l'

Timings for individual modules:

Sum of individual times         ...       76.476 sec (=   1.275 min)
GTO integral calculation        ...        7.010 sec (=   0.117 min)   9.2 %
SCF iterations                  ...       27.487 sec (=   0.458 min)  35.9 %
SCF Gradient evaluation         ...        9.075 sec (=   0.151 min)  11.9 %
Geometry relaxation             ...        1.449 sec (=   0.024 min)   1.9 %
Analytical frequency calculation...       31.455 sec (=   0.524 min)  41.1 %
                             ****ORCA TERMINATED NORMALLY****
TOTAL RUN TIME: 0 days 0 hours 1 minutes 20 seconds 773 msec
