
                                 *****************
                                 * O   R   C   A *
                                 *****************

           --- An Ab Initio, DFT and Semiempirical electronic structure package ---

                  #######################################################
                  #                        -***-                        #
                  #          Department of theory and spectroscopy      #
                  #               Directorship: Frank Neese             #
                  #        Max Planck Institute fuer Kohlenforschung    #
                  #                Kaiser Wilhelm Platz 1               #
                  #                 D-45470 Muelheim/Ruhr               #
                  #                      Germany                        #
                  #                                                     #
                  #                  All rights reserved                #
                  #                        -***-                        #
                  #######################################################


                         Program Version 4.2.1 -  RELEASE  -


 With contributions from (in alphabetic order):
   Daniel Aravena         : Magnetic Suceptibility
   Michael Atanasov       : Ab Initio Ligand Field Theory (pilot matlab implementation)
   Alexander A. Auer      : GIAO ZORA, VPT2
   Ute Becker             : Parallelization
   Giovanni Bistoni       : ED, misc. LED, open-shell LED, HFLD
   Martin Brehm           : Molecular dynamics
   Dmytro Bykov           : SCF Hessian
   Vijay G. Chilkuri      : MRCI spin determinant printing, contributions to CSF-ICE
   Dipayan Datta          : RHF DLPNO-CCSD density
   Achintya Kumar Dutta   : EOM-CC, STEOM-CC
   Dmitry Ganyushin       : Spin-Orbit,Spin-Spin,Magnetic field MRCI
   Miquel Garcia          : C-PCM Hessian, Gaussian charge scheme
   Yang Guo               : DLPNO-NEVPT2, CIM, IAO-localization
   Andreas Hansen         : Spin unrestricted coupled pair/coupled cluster methods
   Benjamin Helmich-Paris : CASSCF linear response (MC-RPA)
   Lee Huntington         : MR-EOM, pCC
   Robert Izsak           : Overlap fitted RIJCOSX, COSX-SCS-MP3, EOM
   Christian Kollmar      : KDIIS, OOCD, Brueckner-CCSD(T), CCSD density
   Simone Kossmann        : Meta GGA functionals, TD-DFT gradient, OOMP2, MP2 Hessian
   Martin Krupicka        : AUTO-CI
   Lucas Lang             : DCDCAS
   Dagmar Lenk            : GEPOL surface, SMD
   Dimitrios Liakos       : Extrapolation schemes; Compound Job, initial MDCI parallelization
   Dimitrios Manganas     : Further ROCIS development; embedding schemes
   Dimitrios Pantazis     : SARC Basis sets
   Taras Petrenko         : DFT Hessian,TD-DFT gradient, ASA, ECA, R-Raman, ABS, FL, XAS/XES, NRVS
   Peter Pinski           : DLPNO-MP2, DLPNO-MP2 Gradient
   Christoph Reimann      : Effective Core Potentials
   Marius Retegan         : Local ZFS, SOC
   Christoph Riplinger    : Optimizer, TS searches, QM/MM, DLPNO-CCSD(T), (RO)-DLPNO pert. Triples
   Tobias Risthaus        : Range-separated hybrids, TD-DFT gradient, RPA, STAB
   Michael Roemelt        : Original ROCIS implementation
   Masaaki Saitow         : Open-shell DLPNO-CCSD energy and density
   Barbara Sandhoefer     : DKH picture change effects
   Avijit Sen             : IP-ROCIS
   Kantharuban Sivalingam : CASSCF convergence, NEVPT2, FIC-MRCI
   Bernardo de Souza      : ESD, SOC TD-DFT
   Georgi Stoychev        : AutoAux, RI-MP2 NMR
   Willem Van den Heuvel  : Paramagnetic NMR
   Boris Wezisla          : Elementary symmetry handling
   Frank Wennmohs         : Technical directorship


 We gratefully acknowledge several colleagues who have allowed us to
 interface, adapt or use parts of their codes:
   Stefan Grimme, W. Hujo, H. Kruse,             : VdW corrections, initial TS optimization,
                  C. Bannwarth                     DFT functionals, gCP, sTDA/sTD-DF
   Ed Valeev, F. Pavosevic, A. Kumar             : LibInt (2-el integral package), F12 methods
   Garnet Chan, S. Sharma, J. Yang, R. Olivares  : DMRG
   Ulf Ekstrom                                   : XCFun DFT Library
   Mihaly Kallay                                 : mrcc  (arbitrary order and MRCC methods)
   Andreas Klamt, Michael Diedenhofen            : otool_cosmo (COSMO solvation model)
   Jiri Pittner, Ondrej Demel                    : Mk-CCSD
   Frank Weinhold                                : gennbo (NPA and NBO analysis)
   Christopher J. Cramer and Donald G. Truhlar   : smd solvation model
   Lars Goerigk                                  : TD-DFT with DH, B97 family of functionals
   V. Asgeirsson, H. Jonsson                     : NEB implementation
   FAccTs GmbH                                   : IRC, NEB, NEB-TS, Multilevel, MM, QM/MM, CI optimization
   S Lehtola, MJT Oliveira, MAL Marques          : LibXC Library


 Your calculation uses the libint2 library for the computation of 2-el integrals
 For citations please refer to: http://libint.valeyev.net

 Your ORCA version has been built with support for libXC version: 4.2.3
 For citations please refer to: https://tddft.org/programs/libxc/

 This ORCA versions uses:
   CBLAS   interface :  Fast vector & matrix operations
   LAPACKE interface :  Fast linear algebra routines
   SCALAPACK package :  Parallel linear algebra routines


----- Orbital basis set information -----
Your calculation utilizes the basis: def2-TZVP
   F. Weigend and R. Ahlrichs, Phys. Chem. Chem. Phys. 7, 3297 (2005).

================================================================================
                                        WARNINGS
                       Please study these warnings very carefully!
================================================================================


WARNING: MDCI localization with Augmented Hessian Foster-Boys
  ===> : Switching off randomization!

WARNING: Post HF methods need fully converged wavefunctions
  ===> : Setting SCFConvForced true
         You can overwrite this default with %scf ConvForced false 


INFO   : the flag for use of LIBINT has been found!

================================================================================
                                       INPUT FILE
================================================================================
NAME = manual_332_sp.inp
|  1> ! SP CCSD(T) def2-TZVP CPCM(Acetone)
|  2> %cpcm
|  3> surfacetype vdw_gaussian
|  4> end
|  5> %geom MaxIter 100 end
|  6> %output 
|  7> xyzfile=True 
|  8> end 
|  9> %scf 
| 10> maxiter 250 
| 11> end
| 12> %output
| 13> Print[P_Hirshfeld] = 1
| 14> end
| 15> % maxcore
| 16> 4000
| 17> %pal nprocs 4
| 18> end
| 19> *xyz -1 1
| 20>   C   1.16704263071346     -1.33555225931114     -0.31414682403397
| 21>   C   -0.05035926503594     -0.71841690270413      0.28707755861638
| 22>   C   -1.40363686837720     -1.13577088518015     -0.18003588088372
| 23>   Br  0.07830395274697      1.57287837287845     -1.04045381255940
| 24>   H   2.08610895012145     -0.91776785856680      0.11463436287333
| 25>   H   1.16803468654604     -1.16789068295095     -1.40190129017961
| 26>   H   1.15233347415489     -2.42268331428485     -0.14306636771774
| 27>   H   0.04901990705754      0.03408998812241      1.05885461865168
| 28>   H   -2.19881775038190     -0.59725834754451      0.34874504475004
| 29>   H   -1.53111794415046     -2.21677964749908     -0.01870710265323
| 30>   H   -1.49522214621210     -0.94483517871681     -1.25996421194052
| 31>   Br  -0.03473962718274     -2.10479328424243      2.54342390507677
| 32> *
| 33> 
| 34>                          ****END OF INPUT****
================================================================================

                       ****************************
                       * Single Point Calculation *
                       ****************************

---------------------------------
CARTESIAN COORDINATES (ANGSTROEM)
---------------------------------
  C      1.167043   -1.335552   -0.314147
  C     -0.050359   -0.718417    0.287078
  C     -1.403637   -1.135771   -0.180036
  Br     0.078304    1.572878   -1.040454
  H      2.086109   -0.917768    0.114634
  H      1.168035   -1.167891   -1.401901
  H      1.152333   -2.422683   -0.143066
  H      0.049020    0.034090    1.058855
  H     -2.198818   -0.597258    0.348745
  H     -1.531118   -2.216780   -0.018707
  H     -1.495222   -0.944835   -1.259964
  Br    -0.034740   -2.104793    2.543424

----------------------------
CARTESIAN COORDINATES (A.U.)
----------------------------
  NO LB      ZA    FRAG     MASS         X           Y           Z
   0 C     6.0000    0    12.011    2.205391   -2.523828   -0.593651
   1 C     6.0000    0    12.011   -0.095165   -1.357611    0.542498
   2 C     6.0000    0    12.011   -2.652489   -2.146296   -0.340219
   3 Br   35.0000    0    79.900    0.147973    2.972309   -1.966173
   4 H     1.0000    0     1.008    3.942175   -1.734330    0.216628
   5 H     1.0000    0     1.008    2.207266   -2.206994   -2.649210
   6 H     1.0000    0     1.008    2.177595   -4.578208   -0.270356
   7 H     1.0000    0     1.008    0.092634    0.064421    2.000945
   8 H     1.0000    0     1.008   -4.155163   -1.128655    0.659033
   9 H     1.0000    0     1.008   -2.893394   -4.189106   -0.035351
  10 H     1.0000    0     1.008   -2.825560   -1.785480   -2.380987
  11 Br   35.0000    0    79.900   -0.065648   -3.977483    4.806375

--------------------------------
INTERNAL COORDINATES (ANGSTROEM)
--------------------------------
 C      0   0   0     0.000000000000     0.00000000     0.00000000
 C      1   0   0     1.491440304686     0.00000000     0.00000000
 C      2   1   0     1.491220836682   119.91214823     0.00000000
 Br     2   1   3     2.651212515996    96.66979356   257.45549931
 H      1   2   3     1.096850040444   111.63917852   178.95437983
 H      1   2   3     1.100600366610   109.64022086    57.90587070
 H      1   2   3     1.100608382899   109.58152516   299.89333016
 H      2   1   3     1.082489108945   120.00784614   180.22856957
 H      3   2   1     1.096320051632   111.69498346   180.12835321
 H      3   2   1     1.100390087004   109.52110981    59.10666279
 H      3   2   1     1.100495119179   109.53324069   301.15199457
 Br     8   2   1     2.604953603920    80.36225190   270.00265844

---------------------------
INTERNAL COORDINATES (A.U.)
---------------------------
 C      0   0   0     0.000000000000     0.00000000     0.00000000
 C      1   0   0     2.818413720949     0.00000000     0.00000000
 C      2   1   0     2.817998986526   119.91214823     0.00000000
 Br     2   1   3     5.010065578057    96.66979356   257.45549931
 H      1   2   3     2.072746186419   111.63917852   178.95437983
 H      1   2   3     2.079833275786   109.64022086    57.90587070
 H      1   2   3     2.079848424378   109.58152516   299.89333016
 H      2   1   3     2.045607958858   120.00784614   180.22856957
 H      3   2   1     2.071744652711   111.69498346   180.12835321
 H      3   2   1     2.079435904919   109.52110981    59.10666279
 H      3   2   1     2.079634386966   109.53324069   301.15199457
 Br     8   2   1     4.922648902980    80.36225190   270.00265844

---------------------
BASIS SET INFORMATION
---------------------
There are 3 groups of distinct atoms

 Group   1 Type C   : 11s6p2d1f contracted to 5s3p2d1f pattern {62111/411/11/1}
 Group   2 Type Br  : 17s13p8d1f contracted to 6s5p4d1f pattern {842111/64111/5111/1}
 Group   3 Type H   : 5s1p contracted to 3s1p pattern {311/1}

Atom   0C    basis set group =>   1
Atom   1C    basis set group =>   1
Atom   2C    basis set group =>   1
Atom   3Br   basis set group =>   2
Atom   4H    basis set group =>   3
Atom   5H    basis set group =>   3
Atom   6H    basis set group =>   3
Atom   7H    basis set group =>   3
Atom   8H    basis set group =>   3
Atom   9H    basis set group =>   3
Atom  10H    basis set group =>   3
Atom  11Br   basis set group =>   2
[1631264767.369944] [comp0805:18963:0]            sys.c:618  UCX  ERROR shmget(size=2097152 flags=0xfb0) for mm_recv_desc failed: Operation not permitted, please check shared memory limits by 'ipcs -l'
[1631264767.370229] [comp0805:18961:0]            sys.c:618  UCX  ERROR shmget(size=2097152 flags=0xfb0) for mm_recv_desc failed: Operation not permitted, please check shared memory limits by 'ipcs -l'
[1631264767.370703] [comp0805:18965:0]            sys.c:618  UCX  ERROR shmget(size=2097152 flags=0xfb0) for mm_recv_desc failed: Operation not permitted, please check shared memory limits by 'ipcs -l'
[1631264767.370412] [comp0805:18968:0]            sys.c:618  UCX  ERROR shmget(size=2097152 flags=0xfb0) for mm_recv_desc failed: Operation not permitted, please check shared memory limits by 'ipcs -l'
[1631264767.393634] [comp0805:18965:0]            sys.c:618  UCX  ERROR shmget(size=2097152 flags=0xb80) for ucp_am_bufs failed: Operation not permitted, please check shared memory limits by 'ipcs -l'
[1631264767.393641] [comp0805:18968:0]            sys.c:618  UCX  ERROR shmget(size=2097152 flags=0xb80) for ucp_am_bufs failed: Operation not permitted, please check shared memory limits by 'ipcs -l'
[1631264767.463048] [comp0805:18961:0]            sys.c:618  UCX  ERROR shmget(size=2097152 flags=0xb80) for ucp_am_bufs failed: Operation not permitted, please check shared memory limits by 'ipcs -l'
[1631264767.464471] [comp0805:18963:0]            sys.c:618  UCX  ERROR shmget(size=2097152 flags=0xb80) for ucp_am_bufs failed: Operation not permitted, please check shared memory limits by 'ipcs -l'


           ************************************************************
           *        Program running with 4 parallel MPI-processes     *
           *              working on a common directory               *
           ************************************************************
------------------------------------------------------------------------------
                           ORCA GTO INTEGRAL CALCULATION
------------------------------------------------------------------------------

                         BASIS SET STATISTICS AND STARTUP INFO

 # of primitive gaussian shells          ...  180
 # of primitive gaussian functions       ...  400
 # of contracted shells                  ...   93
 # of contracted basis functions         ...  231
 Highest angular momentum                ...    3
 Maximum contraction depth               ...    8
 Integral package used                   ... LIBINT
 Integral threshhold            Thresh   ...  1.000e-10
 Primitive cut-off              TCut     ...  1.000e-11


------------------------------ INTEGRAL EVALUATION ----------------------------


 * One electron integrals 
 Pre-screening matrix                    ... done
 Shell pair data                         ... done (   0.001 sec)

[1631264769.864905] [comp0805:19015:0]            sys.c:618  UCX  ERROR shmget(size=2097152 flags=0xfb0) for mm_recv_desc failed: Operation not permitted, please check shared memory limits by 'ipcs -l'
[1631264769.865427] [comp0805:19010:0]            sys.c:618  UCX  ERROR shmget(size=2097152 flags=0xfb0) for mm_recv_desc failed: Operation not permitted, please check shared memory limits by 'ipcs -l'
[1631264769.865689] [comp0805:19012:0]            sys.c:618  UCX  ERROR shmget(size=2097152 flags=0xfb0) for mm_recv_desc failed: Operation not permitted, please check shared memory limits by 'ipcs -l'
[1631264769.865773] [comp0805:19013:0]            sys.c:618  UCX  ERROR shmget(size=2097152 flags=0xfb0) for mm_recv_desc failed: Operation not permitted, please check shared memory limits by 'ipcs -l'
[1631264769.872769] [comp0805:19015:0]            sys.c:618  UCX  ERROR shmget(size=2097152 flags=0xb80) for ucp_am_bufs failed: Operation not permitted, please check shared memory limits by 'ipcs -l'
[1631264769.872764] [comp0805:19013:0]            sys.c:618  UCX  ERROR shmget(size=2097152 flags=0xb80) for ucp_am_bufs failed: Operation not permitted, please check shared memory limits by 'ipcs -l'
[1631264769.873319] [comp0805:19010:0]            sys.c:618  UCX  ERROR shmget(size=2097152 flags=0xb80) for ucp_am_bufs failed: Operation not permitted, please check shared memory limits by 'ipcs -l'
[1631264769.873993] [comp0805:19012:0]            sys.c:618  UCX  ERROR shmget(size=2097152 flags=0xb80) for ucp_am_bufs failed: Operation not permitted, please check shared memory limits by 'ipcs -l'


           ************************************************************
           *        Program running with 4 parallel MPI-processes     *
           *              working on a common directory               *
           ************************************************************
-------------------------------------------------------------------------------
                                 ORCA SCF
-------------------------------------------------------------------------------

------------
SCF SETTINGS
------------
Hamiltonian:
 Ab initio Hamiltonian  Method          .... Hartree-Fock(GTOs)


General Settings:
 Integral files         IntName         .... manual_332_sp
 Hartree-Fock type      HFTyp           .... RHF
 Total Charge           Charge          ....   -1
 Multiplicity           Mult            ....    1
 Number of Electrons    NEL             ....   96
 Basis Dimension        Dim             ....  231
 Nuclear Repulsion      ENuc            ....    502.9592452010 Eh

Convergence Acceleration:
 DIIS                   CNVDIIS         .... on
   Start iteration      DIISMaxIt       ....    12
   Startup error        DIISStart       ....  0.200000
   # of expansion vecs  DIISMaxEq       ....     5
   Bias factor          DIISBfac        ....   1.050
   Max. coefficient     DIISMaxC        ....  10.000
 Newton-Raphson         CNVNR           .... off
 SOSCF                  CNVSOSCF        .... on
   Start iteration      SOSCFMaxIt      ....   150
   Startup grad/error   SOSCFStart      ....  0.003300
 Level Shifting         CNVShift        .... on
   Level shift para.    LevelShift      ....    0.2500
   Turn off err/grad.   ShiftErr        ....    0.0010
 Zerner damping         CNVZerner       .... off
 Static damping         CNVDamp         .... on
   Fraction old density DampFac         ....    0.7000
   Max. Damping (<1)    DampMax         ....    0.9800
   Min. Damping (>=0)   DampMin         ....    0.0000
   Turn off err/grad.   DampErr         ....    0.1000
 Fernandez-Rico         CNVRico         .... off

SCF Procedure:
 Maximum # iterations   MaxIter         ....   250
 SCF integral mode      SCFMode         .... Direct
   Integral package                     .... LIBINT
 Reset frequency        DirectResetFreq ....    20
 Integral Threshold     Thresh          ....  1.000e-10 Eh
 Primitive CutOff       TCut            ....  1.000e-11 Eh

Convergence Tolerance:
 Convergence Check Mode ConvCheckMode   .... Total+1el-Energy
 Convergence forced     ConvForced      .... 1
 Energy Change          TolE            ....  1.000e-06 Eh
 1-El. energy change                    ....  1.000e-03 Eh
 Orbital Gradient       TolG            ....  5.000e-05
 Orbital Rotation angle TolX            ....  5.000e-05
 DIIS Error             TolErr          ....  1.000e-06


Diagonalization of the overlap matrix:
Smallest eigenvalue                        ... 2.627e-04
Time for diagonalization                   ...    0.183 sec
Threshold for overlap eigenvalues          ... 1.000e-08
Number of eigenvalues below threshold      ... 0
Time for construction of square roots      ...    0.006 sec
Total time needed                          ...    0.189 sec

-------------------
DFT GRID GENERATION
-------------------

General Integration Accuracy     IntAcc      ...  4.340
Radial Grid Type                 RadialGrid  ... Gauss-Chebyshev
Angular Grid (max. acc.)         AngularGrid ... Lebedev-110
Angular grid pruning method      GridPruning ... 3 (G Style)
Weight generation scheme         WeightScheme... Becke
Basis function cutoff            BFCut       ...    1.0000e-10
Integration weight cutoff        WCut        ...    1.0000e-14
Grids for H and He will be reduced by one unit

# of grid points (after initial pruning)     ...  16306 (   0.0 sec)
# of grid points (after weights+screening)   ...  15516 (   0.0 sec)
nearest neighbour list constructed           ...    0.0 sec
Grid point re-assignment to atoms done       ...    0.0 sec
Grid point division into batches done        ...    0.0 sec
Reduced shell lists constructed in    0.1 sec

Total number of grid points                  ...    15516
Total number of batches                      ...      250
Average number of points per batch           ...       62
Average number of grid points per atom       ...     1293
Average number of shells per batch           ...    65.14 (70.04%)
Average number of basis functions per batch  ...   167.67 (72.59%)
Average number of large shells per batch     ...    53.28 (81.79%)
Average number of large basis fcns per batch ...   134.72 (80.35%)
Maximum spatial batch extension              ...  18.51, 18.13, 15.20 au
Average spatial batch extension              ...   0.83,  0.80,  0.79 au

Time for grid setup =    0.108 sec

------------------------------
INITIAL GUESS: MODEL POTENTIAL
------------------------------
Loading Hartree-Fock densities                     ... done
Calculating cut-offs                               ... done
Setting up the integral package                    ... done
Initializing the effective Hamiltonian             ... done
Starting the Coulomb interaction                   ... done (   0.0 sec)
Reading the grid                                   ... done
Mapping shells                                     ... done
Starting the XC term evaluation                    ... done (   0.0 sec)
Transforming the Hamiltonian                       ... done (   0.0 sec)
Diagonalizing the Hamiltonian                      ... done (   0.0 sec)
Back transforming the eigenvectors                 ... done (   0.0 sec)
Now organizing SCF variables                       ... done
                      ------------------
                      INITIAL GUESS DONE (   0.3 sec)
                      ------------------

--------------------
CPCM SOLVATION MODEL
--------------------
CPCM parameters:
  Epsilon                                         ...      20.7000
  Refrac                                          ...       1.3590
  Rsolv                                           ...       1.3000
  Surface type                                    ... GAUSSIAN VDW
  Epsilon function type                           ...         CPCM
Radii:
 Radius for C  used is    3.8550 Bohr (=   2.0400 Ang.)
 Radius for Br used is    4.1952 Bohr (=   2.2200 Ang.)
 Radius for H  used is    2.4944 Bohr (=   1.3200 Ang.)
Calculating surface                               ...        done! (  0.0s)
GEPOL surface points                              ...          725
GEPOL Volume                                      ...    1035.2998
GEPOL Surface-area                                ...     600.2626
Calculating surface distance matrix               ...        done! (  0.0s)
Performing Cholesky decomposition & store         ...        done! (  0.0s)
Overall time for CPCM initialization              ...                 0.0s
--------------
SCF ITERATIONS
--------------
ITER       Energy         Delta-E        Max-DP      RMS-DP      [F,P]     Damp
               ***  Starting incremental Fock matrix formation  ***
  0  -5262.4082719251   0.000000000000 0.07103694  0.00105789  0.2347217 0.7000
  1  -5262.5021997940  -0.093927868875 0.05979946  0.00091214  0.1699112 0.7000
                               ***Turning on DIIS***
  2  -5262.5631417148  -0.060941920804 0.04401537  0.00067251  0.1225352 0.7000
  3  -5263.3683813862  -0.805239671370 0.10837640  0.00163558  0.0894464 0.0000
  4  -5262.6752691332   0.693112252954 0.01008254  0.00024462  0.0110457 0.0000
  5  -5262.6701168855   0.005152247684 0.00643990  0.00017090  0.0065761 0.0000
  6  -5262.6941330647  -0.024016179151 0.00422314  0.00009927  0.0035393 0.0000
  7  -5262.6927489913   0.001384073355 0.00164752  0.00005126  0.0017638 0.0000
                      *** Initiating the SOSCF procedure ***
                           *** Shutting down DIIS ***
                      *** Re-Reading the Fockian *** 
                      *** Removing any level shift *** 
ITER      Energy       Delta-E        Grad      Rot      Max-DP    RMS-DP
  8  -5262.70120243  -0.0084534355  0.001971  0.001971  0.001263  0.000042
               *** Restarting incremental Fock matrix formation ***
  9  -5262.70113942   0.0000630058  0.000188  0.000410  0.000328  0.000008
 10  -5262.70114007  -0.0000006538  0.000132  0.000557  0.000276  0.000007
 11  -5262.70114030  -0.0000002244  0.000013  0.000032  0.000040  0.000001
                 **** Energy Check signals convergence ****
              ***Rediagonalizing the Fockian in SOSCF/NRSCF***

               *****************************************************
               *                     SUCCESS                       *
               *           SCF CONVERGED AFTER  12 CYCLES          *
               *****************************************************


----------------
TOTAL SCF ENERGY
----------------

Total Energy       :        -5262.70114030 Eh         -143205.37845 eV

Components:
Nuclear Repulsion  :          502.95924520 Eh           13686.21686 eV
Electronic Energy  :        -5765.66038550 Eh         -156891.59530 eV
One Electron Energy:        -8346.89718857 Eh         -227130.61960 eV
Two Electron Energy:         2581.23680306 Eh           70239.02429 eV
CPCM Dielectric    :           -0.09205099 Eh              -2.50483 eV

Virial components:
Potential Energy   :       -10525.22326822 Eh         -286405.88572 eV
Kinetic Energy     :         5262.52212792 Eh          143200.50727 eV
Virial Ratio       :            2.00003402

CPCM Solvation Model Properties:
Surface-charge          :            0.96229076
Charge-correction       :           -0.00486736 Eh              -0.13245 eV
Free-energy (cav+disp)  :            0.00391700 Eh               0.10659 eV
Corrected G(solv)       :        -5262.70209067 Eh         -143205.40431 eV

---------------
SCF CONVERGENCE
---------------

  Last Energy change         ...   -1.7562e-09  Tolerance :   1.0000e-06
  Last MAX-Density change    ...    1.5647e-05  Tolerance :   1.0000e-05
  Last RMS-Density change    ...    2.5012e-07  Tolerance :   1.0000e-06
  Last Orbital Gradient      ...    5.8586e-06  Tolerance :   5.0000e-05
  Last Orbital Rotation      ...    1.0735e-05  Tolerance :   5.0000e-05

             **** THE GBW FILE WAS UPDATED (manual_332_sp.gbw) ****
             **** DENSITY FILE WAS UPDATED (manual_332_sp.scfp) ****
             **** ENERGY FILE WAS UPDATED (manual_332_sp.en.tmp) ****
             **** THE GBW FILE WAS UPDATED (manual_332_sp.gbw) ****
             **** DENSITY FILE WAS UPDATED (manual_332_sp.scfp) ****
----------------
ORBITAL ENERGIES
----------------

  NO   OCC          E(Eh)            E(eV) 
   0   2.0000    -489.925990    -13331.5640 
   1   2.0000    -489.925843    -13331.5599 
   2   2.0000     -65.069252     -1770.6244 
   3   2.0000     -65.069103     -1770.6203 
   4   2.0000     -58.423713     -1589.7901 
   5   2.0000     -58.423563     -1589.7860 
   6   2.0000     -58.423551     -1589.7856 
   7   2.0000     -58.423545     -1589.7855 
   8   2.0000     -58.423404     -1589.7816 
   9   2.0000     -58.423397     -1589.7815 
  10   2.0000     -11.342576      -308.6472 
  11   2.0000     -11.228962      -305.5556 
  12   2.0000     -11.228822      -305.5518 
  13   2.0000      -9.742689      -265.1121 
  14   2.0000      -9.742538      -265.1079 
  15   2.0000      -7.351245      -200.0376 
  16   2.0000      -7.351087      -200.0332 
  17   2.0000      -7.350344      -200.0130 
  18   2.0000      -7.350301      -200.0119 
  19   2.0000      -7.350197      -200.0090 
  20   2.0000      -7.350154      -200.0079 
  21   2.0000      -3.092085       -84.1399 
  22   2.0000      -3.091923       -84.1355 
  23   2.0000      -3.091721       -84.1300 
  24   2.0000      -3.091658       -84.1283 
  25   2.0000      -3.091565       -84.1258 
  26   2.0000      -3.091501       -84.1240 
  27   2.0000      -3.090594       -84.0993 
  28   2.0000      -3.090591       -84.0993 
  29   2.0000      -3.090454       -84.0955 
  30   2.0000      -3.090451       -84.0954 
  31   2.0000      -1.090321       -29.6691 
  32   2.0000      -0.955637       -26.0042 
  33   2.0000      -0.909464       -24.7478 
  34   2.0000      -0.904666       -24.6172 
  35   2.0000      -0.798661       -21.7327 
  36   2.0000      -0.648291       -17.6409 
  37   2.0000      -0.596194       -16.2233 
  38   2.0000      -0.584514       -15.9054 
  39   2.0000      -0.547053       -14.8861 
  40   2.0000      -0.521774       -14.1982 
  41   2.0000      -0.517613       -14.0850 
  42   2.0000      -0.375570       -10.2198 
  43   2.0000      -0.357401        -9.7254 
  44   2.0000      -0.356079        -9.6894 
  45   2.0000      -0.353400        -9.6165 
  46   2.0000      -0.352370        -9.5885 
  47   2.0000      -0.335750        -9.1362 
  48   0.0000       0.083100         2.2613 
  49   0.0000       0.159281         4.3342 
  50   0.0000       0.190708         5.1894 
  51   0.0000       0.196172         5.3381 
  52   0.0000       0.234483         6.3806 
  53   0.0000       0.236936         6.4474 
  54   0.0000       0.244713         6.6590 
  55   0.0000       0.264472         7.1967 
  56   0.0000       0.277758         7.5582 
  57   0.0000       0.323006         8.7895 
  58   0.0000       0.325821         8.8660 
  59   0.0000       0.327750         8.9185 
  60   0.0000       0.348239         9.4761 
  61   0.0000       0.359218         9.7748 
  62   0.0000       0.369592        10.0571 
  63   0.0000       0.372748        10.1430 
  64   0.0000       0.409955        11.1554 
  65   0.0000       0.420315        11.4374 
  66   0.0000       0.421323        11.4648 
  67   0.0000       0.428347        11.6559 
  68   0.0000       0.435228        11.8432 
  69   0.0000       0.436518        11.8783 
  70   0.0000       0.478564        13.0224 
  71   0.0000       0.505173        13.7465 
  72   0.0000       0.513951        13.9853 
  73   0.0000       0.518442        14.1075 
  74   0.0000       0.524782        14.2800 
  75   0.0000       0.558764        15.2047 
  76   0.0000       0.560963        15.2646 
  77   0.0000       0.563167        15.3245 
  78   0.0000       0.599207        16.3053 
  79   0.0000       0.601172        16.3587 
  80   0.0000       0.610759        16.6196 
  81   0.0000       0.619187        16.8489 
  82   0.0000       0.621335        16.9074 
  83   0.0000       0.649207        17.6658 
  84   0.0000       0.655368        17.8335 
  85   0.0000       0.658007        17.9053 
  86   0.0000       0.666891        18.1470 
  87   0.0000       0.685673        18.6581 
  88   0.0000       0.702902        19.1269 
  89   0.0000       0.714546        19.4438 
  90   0.0000       0.766096        20.8465 
  91   0.0000       0.800428        21.7808 
  92   0.0000       0.851979        23.1835 
  93   0.0000       0.921146        25.0657 
  94   0.0000       0.965381        26.2693 
  95   0.0000       0.986227        26.8366 
  96   0.0000       1.041320        28.3357 
  97   0.0000       1.146222        31.1903 
  98   0.0000       1.158904        31.5354 
  99   0.0000       1.160931        31.5905 
 100   0.0000       1.173033        31.9199 
 101   0.0000       1.202407        32.7192 
 102   0.0000       1.221234        33.2315 
 103   0.0000       1.239317        33.7235 
 104   0.0000       1.246041        33.9065 
 105   0.0000       1.315597        35.7992 
 106   0.0000       1.372589        37.3501 
 107   0.0000       1.385578        37.7035 
 108   0.0000       1.392724        37.8980 
 109   0.0000       1.461084        39.7581 
 110   0.0000       1.627734        44.2929 
 111   0.0000       1.662476        45.2383 
 112   0.0000       1.673340        45.5339 
 113   0.0000       1.681921        45.7674 
 114   0.0000       1.695334        46.1324 
 115   0.0000       1.711133        46.5623 
 116   0.0000       1.714359        46.6501 
 117   0.0000       1.720232        46.8099 
 118   0.0000       1.725270        46.9470 
 119   0.0000       1.732612        47.1468 
 120   0.0000       1.743914        47.4543 
 121   0.0000       1.750083        47.6222 
 122   0.0000       1.789527        48.6955 
 123   0.0000       1.793643        48.8075 
 124   0.0000       1.815702        49.4078 
 125   0.0000       1.816661        49.4339 
 126   0.0000       1.842457        50.1358 
 127   0.0000       1.849838        50.3366 
 128   0.0000       1.867713        50.8231 
 129   0.0000       1.870429        50.8970 
 130   0.0000       1.885584        51.3094 
 131   0.0000       1.886789        51.3421 
 132   0.0000       1.887132        51.3515 
 133   0.0000       1.891232        51.4630 
 134   0.0000       1.895303        51.5738 
 135   0.0000       1.896363        51.6027 
 136   0.0000       1.899093        51.6769 
 137   0.0000       1.908120        51.9226 
 138   0.0000       1.938705        52.7549 
 139   0.0000       1.939642        52.7803 
 140   0.0000       1.958211        53.2856 
 141   0.0000       1.960957        53.3604 
 142   0.0000       1.972811        53.6829 
 143   0.0000       1.975285        53.7502 
 144   0.0000       1.980692        53.8974 
 145   0.0000       1.987934        54.0944 
 146   0.0000       2.000587        54.4387 
 147   0.0000       2.011404        54.7331 
 148   0.0000       2.063038        56.1381 
 149   0.0000       2.085194        56.7410 
 150   0.0000       2.144187        58.3463 
 151   0.0000       2.161786        58.8252 
 152   0.0000       2.203292        59.9546 
 153   0.0000       2.210014        60.1376 
 154   0.0000       2.293100        62.3984 
 155   0.0000       2.296231        62.4836 
 156   0.0000       2.345171        63.8153 
 157   0.0000       2.424917        65.9854 
 158   0.0000       2.435302        66.2679 
 159   0.0000       2.440999        66.4230 
 160   0.0000       2.519444        68.5576 
 161   0.0000       2.608895        70.9917 
 162   0.0000       2.620476        71.3068 
 163   0.0000       2.625117        71.4331 
 164   0.0000       2.633777        71.6687 
 165   0.0000       2.674669        72.7814 
 166   0.0000       2.676301        72.8259 
 167   0.0000       2.698462        73.4289 
 168   0.0000       2.840860        77.3037 
 169   0.0000       2.842902        77.3593 
 170   0.0000       2.859985        77.8242 
 171   0.0000       2.876609        78.2765 
 172   0.0000       2.892936        78.7208 
 173   0.0000       2.903547        79.0095 
 174   0.0000       2.959740        80.5386 
 175   0.0000       3.000374        81.6443 
 176   0.0000       3.097310        84.2821 
 177   0.0000       3.128554        85.1323 
 178   0.0000       3.132766        85.2469 
 179   0.0000       3.187803        86.7445 
 180   0.0000       3.193825        86.9084 
 181   0.0000       3.316892        90.2572 
 182   0.0000       3.332799        90.6901 
 183   0.0000       3.364436        91.5510 
 184   0.0000       3.446921        93.7955 
 185   0.0000       3.475757        94.5802 
 186   0.0000       3.490852        94.9909 
 187   0.0000       3.506803        95.4250 
 188   0.0000       3.555603        96.7529 
 189   0.0000       3.574500        97.2671 
 190   0.0000       3.648471        99.2799 
 191   0.0000       3.651615        99.3655 
 192   0.0000       3.659800        99.5882 
 193   0.0000       3.750445       102.0548 
 194   0.0000       3.785468       103.0078 
 195   0.0000       3.822900       104.0264 
 196   0.0000       3.840672       104.5100 
 197   0.0000       3.911620       106.4406 
 198   0.0000       3.915001       106.5326 
 199   0.0000       4.038184       109.8846 
 200   0.0000       4.119944       112.1094 
 201   0.0000       4.282265       116.5263 
 202   0.0000       4.284729       116.5934 
 203   0.0000       4.331475       117.8654 
 204   0.0000       4.360932       118.6670 
 205   0.0000       4.381118       119.2163 
 206   0.0000       4.396024       119.6219 
 207   0.0000       4.521918       123.0476 
 208   0.0000       4.522920       123.0749 
 209   0.0000       4.539945       123.5382 
 210   0.0000       4.548659       123.7753 
 211   0.0000       4.554225       123.9268 
 212   0.0000       4.601596       125.2158 
 213   0.0000       4.618582       125.6780 
 214   0.0000       4.620883       125.7406 
 215   0.0000       4.633318       126.0790 
 216   0.0000       4.637483       126.1923 
 217   0.0000       4.683944       127.4566 
 218   0.0000       4.692723       127.6955 
 219   0.0000       4.753066       129.3375 
 220   0.0000       4.849113       131.9511 
 221   0.0000       4.891180       133.0958 
 222   0.0000       4.932642       134.2240 
 223   0.0000       5.116716       139.2329 
 224   0.0000       5.165877       140.5707 
 225   0.0000       5.249881       142.8565 
 226   0.0000       8.071100       219.6258 
 227   0.0000       8.147963       221.7174 
 228   0.0000      23.431213       637.5957 
 229   0.0000      23.438568       637.7959 
 230   0.0000      23.535622       640.4368 

                    ********************************
                    * MULLIKEN POPULATION ANALYSIS *
                    ********************************

-----------------------
MULLIKEN ATOMIC CHARGES
-----------------------
   0 C :   -0.315189
   1 C :    0.245192
   2 C :   -0.315868
   3 Br:   -0.860486
   4 H :    0.139301
   5 H :    0.155771
   6 H :    0.156959
   7 H :    0.200466
   8 H :    0.139401
   9 H :    0.156929
  10 H :    0.156651
  11 Br:   -0.859126
Sum of atomic charges:   -1.0000000

--------------------------------
MULLIKEN REDUCED ORBITAL CHARGES
--------------------------------
  0 C s       :     3.205428  s :     3.205428
      pz      :     1.045629  p :     3.034455
      px      :     0.944353
      py      :     1.044473
      dz2     :     0.020504  d :     0.070920
      dxz     :     0.011482
      dyz     :     0.006265
      dx2y2   :     0.021181
      dxy     :     0.011488
      f0      :     0.001234  f :     0.004385
      f+1     :     0.000284
      f-1     :     0.000335
      f+2     :     0.000350
      f-2     :     0.000540
      f+3     :     0.000386
      f-3     :     0.001257
  1 C s       :     3.158778  s :     3.158778
      pz      :     0.704481  p :     2.437374
      px      :     1.046318
      py      :     0.686576
      dz2     :     0.025071  d :     0.150464
      dxz     :     0.027157
      dyz     :     0.032086
      dx2y2   :     0.039116
      dxy     :     0.027034
      f0      :     0.000506  f :     0.008192
      f+1     :     0.001494
      f-1     :     0.000857
      f+2     :     0.001572
      f-2     :     0.000933
      f+3     :     0.001595
      f-3     :     0.001236
  2 C s       :     3.205933  s :     3.205933
      pz      :     1.060534  p :     3.034831
      px      :     0.909492
      py      :     1.064805
      dz2     :     0.020000  d :     0.070721
      dxz     :     0.011827
      dyz     :     0.006033
      dx2y2   :     0.021382
      dxy     :     0.011479
      f0      :     0.001147  f :     0.004383
      f+1     :     0.000398
      f-1     :     0.000353
      f+2     :     0.000325
      f-2     :     0.000444
      f+3     :     0.000638
      f-3     :     0.001079
  3 Brs       :     7.965379  s :     7.965379
      pz      :     5.968322  p :    17.886668
      px      :     5.995329
      py      :     5.923018
      dz2     :     2.001043  d :    10.007939
      dxz     :     2.000162
      dyz     :     2.003323
      dx2y2   :     2.002503
      dxy     :     2.000908
      f0      :     0.000051  f :     0.000498
      f+1     :     0.000006
      f-1     :     0.000120
      f+2     :     0.000140
      f-2     :     0.000030
      f+3     :     0.000073
      f-3     :     0.000077
  4 H s       :     0.838649  s :     0.838649
      pz      :     0.005122  p :     0.022050
      px      :     0.011887
      py      :     0.005042
  5 H s       :     0.822045  s :     0.822045
      pz      :     0.014850  p :     0.022183
      px      :     0.003316
      py      :     0.004017
  6 H s       :     0.820807  s :     0.820807
      pz      :     0.004049  p :     0.022235
      px      :     0.003320
      py      :     0.014866
  7 H s       :     0.773373  s :     0.773373
      pz      :     0.011401  p :     0.026161
      px      :     0.003740
      py      :     0.011020
  8 H s       :     0.838529  s :     0.838529
      pz      :     0.006066  p :     0.022070
      px      :     0.009811
      py      :     0.006193
  9 H s       :     0.820855  s :     0.820855
      pz      :     0.004026  p :     0.022216
      px      :     0.003548
      py      :     0.014642
 10 H s       :     0.821144  s :     0.821144
      pz      :     0.014628  p :     0.022205
      px      :     0.003446
      py      :     0.004131
 11 Brs       :     7.965093  s :     7.965093
      pz      :     5.924478  p :    17.885493
      px      :     5.995569
      py      :     5.965445
      dz2     :     2.002596  d :    10.008035
      dxz     :     2.000914
      dyz     :     2.003441
      dx2y2   :     2.000922
      dxy     :     2.000162
      f0      :     0.000084  f :     0.000505
      f+1     :     0.000076
      f-1     :     0.000173
      f+2     :     0.000113
      f-2     :     0.000031
      f+3     :     0.000005
      f-3     :     0.000023


                     *******************************
                     * LOEWDIN POPULATION ANALYSIS *
                     *******************************

----------------------
LOEWDIN ATOMIC CHARGES
----------------------
   0 C :   -0.290131
   1 C :   -0.110183
   2 C :   -0.288251
   3 Br:   -0.625868
   4 H :    0.128597
   5 H :    0.135256
   6 H :    0.135316
   7 H :    0.139002
   8 H :    0.128631
   9 H :    0.135801
  10 H :    0.135762
  11 Br:   -0.623935

-------------------------------
LOEWDIN REDUCED ORBITAL CHARGES
-------------------------------
  0 C s       :     2.831147  s :     2.831147
      pz      :     1.072780  p :     3.174172
      px      :     1.027959
      py      :     1.073433
      dz2     :     0.069485  d :     0.261170
      dxz     :     0.043441
      dyz     :     0.022978
      dx2y2   :     0.082232
      dxy     :     0.043034
      f0      :     0.003711  f :     0.023643
      f+1     :     0.001931
      f-1     :     0.002125
      f+2     :     0.003015
      f-2     :     0.005486
      f+3     :     0.002700
      f-3     :     0.004675
  1 C s       :     2.884505  s :     2.884505
      pz      :     0.805299  p :     2.713981
      px      :     1.118394
      py      :     0.790287
      dz2     :     0.075428  d :     0.471119
      dxz     :     0.088716
      dyz     :     0.098202
      dx2y2   :     0.120566
      dxy     :     0.088207
      f0      :     0.002354  f :     0.040578
      f+1     :     0.008452
      f-1     :     0.003681
      f+2     :     0.006592
      f-2     :     0.005229
      f+3     :     0.008789
      f-3     :     0.005482
  2 C s       :     2.830769  s :     2.830769
      pz      :     1.075298  p :     3.173460
      px      :     1.021801
      py      :     1.076361
      dz2     :     0.064633  d :     0.260377
      dxz     :     0.050018
      dyz     :     0.018901
      dx2y2   :     0.077676
      dxy     :     0.049149
      f0      :     0.003641  f :     0.023645
      f+1     :     0.002496
      f-1     :     0.001744
      f+2     :     0.002578
      f-2     :     0.005139
      f+3     :     0.003719
      f-3     :     0.004327
  3 Brs       :     7.871551  s :     7.871551
      pz      :     5.930259  p :    17.733950
      px      :     5.966128
      py      :     5.837562
      dz2     :     2.002852  d :    10.019623
      dxz     :     2.000455
      dyz     :     2.008516
      dx2y2   :     2.004708
      dxy     :     2.003092
      f0      :     0.000067  f :     0.000744
      f+1     :     0.000011
      f-1     :     0.000188
      f+2     :     0.000245
      f-2     :     0.000045
      f+3     :     0.000092
      f-3     :     0.000095
  4 H s       :     0.811018  s :     0.811018
      pz      :     0.015845  p :     0.060385
      px      :     0.028889
      py      :     0.015651
  5 H s       :     0.803656  s :     0.803656
      pz      :     0.037527  p :     0.061087
      px      :     0.010736
      py      :     0.012824
  6 H s       :     0.803487  s :     0.803487
      pz      :     0.012877  p :     0.061197
      px      :     0.010784
      py      :     0.037537
  7 H s       :     0.792336  s :     0.792336
      pz      :     0.029092  p :     0.068662
      px      :     0.011486
      py      :     0.028083
  8 H s       :     0.810902  s :     0.810902
      pz      :     0.018113  p :     0.060467
      px      :     0.023970
      py      :     0.018384
  9 H s       :     0.803015  s :     0.803015
      pz      :     0.012879  p :     0.061184
      px      :     0.010823
      py      :     0.037482
 10 H s       :     0.803094  s :     0.803094
      pz      :     0.037332  p :     0.061143
      px      :     0.010659
      py      :     0.013152
 11 Brs       :     7.870937  s :     7.870937
      pz      :     5.840728  p :    17.732447
      px      :     5.966419
      py      :     5.925300
      dz2     :     2.004678  d :    10.019799
      dxz     :     2.003143
      dyz     :     2.008682
      dx2y2   :     2.002808
      dxy     :     2.000488
      f0      :     0.000078  f :     0.000751
      f+1     :     0.000095
      f-1     :     0.000268
      f+2     :     0.000209
      f-2     :     0.000046
      f+3     :     0.000010
      f-3     :     0.000045


                      *****************************
                      * MAYER POPULATION ANALYSIS *
                      *****************************

  NA   - Mulliken gross atomic population
  ZA   - Total nuclear charge
  QA   - Mulliken gross atomic charge
  VA   - Mayer's total valence
  BVA  - Mayer's bonded valence
  FA   - Mayer's free valence

  ATOM       NA         ZA         QA         VA         BVA        FA
  0 C      6.3152     6.0000    -0.3152     3.8493     3.8493    -0.0000
  1 C      5.7548     6.0000     0.2452     3.4203     3.4203     0.0000
  2 C      6.3159     6.0000    -0.3159     3.8502     3.8502     0.0000
  3 Br    35.8605    35.0000    -0.8605     0.2497     0.2497    -0.0000
  4 H      0.8607     1.0000     0.1393     0.9819     0.9819     0.0000
  5 H      0.8442     1.0000     0.1558     0.9707     0.9707    -0.0000
  6 H      0.8430     1.0000     0.1570     0.9707     0.9707     0.0000
  7 H      0.7995     1.0000     0.2005     0.9733     0.9733    -0.0000
  8 H      0.8606     1.0000     0.1394     0.9816     0.9816     0.0000
  9 H      0.8431     1.0000     0.1569     0.9706     0.9706     0.0000
 10 H      0.8433     1.0000     0.1567     0.9707     0.9707     0.0000
 11 Br    35.8591    35.0000    -0.8591     0.2522     0.2522    -0.0000

  Mayer bond orders larger than 0.100000
B(  0-C ,  1-C ) :   0.9982 B(  0-C ,  4-H ) :   0.9798 B(  0-C ,  5-H ) :   0.9527 
B(  0-C ,  6-H ) :   0.9515 B(  1-C ,  2-C ) :   0.9983 B(  1-C ,  3-Br) :   0.2348 
B(  1-C ,  7-H ) :   0.9392 B(  1-C , 11-Br) :   0.2372 B(  2-C ,  8-H ) :   0.9796 
B(  2-C ,  9-H ) :   0.9521 B(  2-C , 10-H ) :   0.9520 


------------------
HIRSHFELD ANALYSIS
------------------

Total integrated alpha density =     48.002164650
Total integrated beta density  =     48.002164650

  ATOM     CHARGE      SPIN    
   0 C   -0.050663    0.000000
   1 C    0.216104    0.000000
   2 C   -0.049723    0.000000
   3 Br  -0.703106    0.000000
   4 H    0.037300    0.000000
   5 H    0.039000    0.000000
   6 H    0.038880    0.000000
   7 H    0.050881    0.000000
   8 H    0.038162    0.000000
   9 H    0.040132    0.000000
  10 H    0.040078    0.000000
  11 Br  -0.701375    0.000000

  TOTAL  -1.004329    0.000000

-------
TIMINGS
-------

Total SCF time: 0 days 0 hours 0 min 36 sec 

Total time                  ....      36.949 sec
Sum of individual times     ....      36.522 sec  ( 98.8%)

Fock matrix formation       ....      36.062 sec  ( 97.6%)
Diagonalization             ....       0.064 sec  (  0.2%)
Density matrix formation    ....       0.007 sec  (  0.0%)
Population analysis         ....       0.060 sec  (  0.2%)
Initial guess               ....       0.177 sec  (  0.5%)
Orbital Transformation      ....       0.000 sec  (  0.0%)
Orbital Orthonormalization  ....       0.000 sec  (  0.0%)
DIIS solution               ....       0.026 sec  (  0.1%)
SOSCF solution              ....       0.019 sec  (  0.1%)
[1631264807.766866] [comp0805:19080:0]            sys.c:618  UCX  ERROR shmget(size=2097152 flags=0xfb0) for mm_recv_desc failed: Operation not permitted, please check shared memory limits by 'ipcs -l'
[1631264807.785354] [comp0805:19081:0]            sys.c:618  UCX  ERROR shmget(size=2097152 flags=0xfb0) for mm_recv_desc failed: Operation not permitted, please check shared memory limits by 'ipcs -l'
[1631264807.791839] [comp0805:19083:0]            sys.c:618  UCX  ERROR shmget(size=2097152 flags=0xfb0) for mm_recv_desc failed: Operation not permitted, please check shared memory limits by 'ipcs -l'
[1631264807.792091] [comp0805:19082:0]            sys.c:618  UCX  ERROR shmget(size=2097152 flags=0xfb0) for mm_recv_desc failed: Operation not permitted, please check shared memory limits by 'ipcs -l'
[1631264807.800240] [comp0805:19083:0]            sys.c:618  UCX  ERROR shmget(size=2097152 flags=0xb80) for ucp_am_bufs failed: Operation not permitted, please check shared memory limits by 'ipcs -l'
[1631264807.800234] [comp0805:19082:0]            sys.c:618  UCX  ERROR shmget(size=2097152 flags=0xb80) for ucp_am_bufs failed: Operation not permitted, please check shared memory limits by 'ipcs -l'


           ************************************************************
           *        Program running with 4 parallel MPI-processes     *
           *              working on a common directory               *
           ************************************************************
[1631264807.804401] [comp0805:19081:0]            sys.c:618  UCX  ERROR shmget(size=2097152 flags=0xb80) for ucp_am_bufs failed: Operation not permitted, please check shared memory limits by 'ipcs -l'


------------------------------------------------------------------------------- 
                              ORCA-MATRIX DRIVEN CI                            
------------------------------------------------------------------------------- 

--------------------------------
AUTOMATIC CHOICE OF INCORE LEVEL
--------------------------------

Memory available                           ...   2000.00 MB
Memory needed for S+T                      ...    289.74 MB
Memory needed for J+K                      ...    580.53 MB
Memory needed for DIIS                     ...   4056.33 MB
Memory needed for 3-ext                    ...   1262.43 MB
Memory needed for 4-ext                    ...   4301.61 MB
Memory needed for triples                  ...    233.78 MB
 -> Final InCoreLevel    ... 2
 -> check shows that triples correction can be computed


Wavefunction type
-----------------
Correlation treatment                      ...      CCSD     
Single excitations                         ... ON
Orbital optimization                       ... OFF
Calculation of Z vector                    ... OFF
Calculation of Brueckner orbitals          ... OFF
Perturbative triple excitations            ... ON
Calculation of F12 correction              ... OFF
Frozen core treatment                      ... chemical core (42 el)
Reference Wavefunction                     ... RHF
  Internal Orbitals:    21 ...   47 ( 27 MO's/ 54 electrons)
  Virtual  Orbitals:    48 ...  230 (183 MO's              )
Number of AO's                             ...    231
Number of electrons                        ...     96
Number of correlated electrons             ...     54

Algorithmic settings
--------------------
Integral transformation                    ... AO direct full transformation
K(C) Formation                             ... FULL-MO TRAFO
Maximum number of iterations               ...        50
Convergence tolerance (max. residuum)      ... 2.500e-05
Level shift for amplitude update           ... 2.000e-01
Maximum number of DIIS vectors             ...         7
DIIS turned on at iteration                ...         0
Damping before turning on DIIS             ...     0.500
Damping after turning on DIIS              ...     0.000
Pair specific amplitude update             ... OFF
Natural orbital iterations                 ... OFF
Perturbative natural orbital generation    ... OFF
Printlevel                                 ... 2

Memory handling:
----------------
Maximum memory for working arrays          ...   2000 MB
Data storage in matrix containers          ... UNCOMPRESSED
Data type for integral storage             ... DOUBLE
In-Core Storage of quantities:
   Amplitudes+Sigma Vector      ... YES
   J+K operators                ... YES
   DIIS vectors                 ... NO
   3-external integrals         ... NO
   4-external integrals         ... NO


Initializing the integral package          ... done
Warning: reference  - re-canonicalizations have been set to INT 1 VIRT 1

--------------------------
CLOSED-SHELL FOCK OPERATOR
--------------------------

MDCI_FockCPCM: ediel   =  -0.092050994000
MDCI_FockCPCM: <VCPCM> =  -6.917871238163
<ss|ss>:       538203 b        89724 skpd ( 16.7%)    0.035 s ( 0.000 ms/b)
<ss|sp>:      1161440 b       205497 skpd ( 17.7%)    0.125 s ( 0.000 ms/b)
<ss|sd>: [1631264808.176093] [comp0805:19080:0]            sys.c:618  UCX  ERROR shmget(size=2097152 flags=0xb80) for ucp_am_bufs failed: Operation not permitted, please check shared memory limits by 'ipcs -l'
      620126 b       120579 skpd ( 19.4%)    0.081 s ( 0.000 ms/b)
<ss|sf>:       240584 b        52426 skpd ( 21.8%)    0.033 s ( 0.000 ms/b)
<ss|pp>:       335988 b        58337 skpd ( 17.4%)    0.060 s ( 0.000 ms/b)
<ss|pd>:       352580 b        73815 skpd ( 20.9%)    0.078 s ( 0.000 ms/b)
<ss|pf>:       130662 b        25360 skpd ( 19.4%)    0.036 s ( 0.000 ms/b)
<ss|dd>:       100589 b        19982 skpd ( 19.9%)    0.041 s ( 0.001 ms/b)
<ss|df>:        68442 b        13211 skpd ( 19.3%)    0.029 s ( 0.001 ms/b)
<ss|ff>:        15555 b         2528 skpd ( 16.3%)    0.009 s ( 0.001 ms/b)
<sp|sp>:       627760 b       113405 skpd ( 18.1%)    0.099 s ( 0.000 ms/b)
<sp|sd>:       669760 b       136493 skpd ( 20.4%)    0.152 s ( 0.000 ms/b)
<sp|sf>:       259840 b        59120 skpd ( 22.8%)    0.066 s ( 0.000 ms/b)
<sp|pp>:       362880 b        63149 skpd ( 17.4%)    0.126 s ( 0.000 ms/b)
<sp|pd>:       380800 b        80343 skpd ( 21.1%)    0.183 s ( 0.001 ms/b)
<sp|pf>:       141120 b        27176 skpd ( 19.3%)    0.087 s ( 0.001 ms/b)
<sp|dd>:       108640 b        21868 skpd ( 20.1%)    0.104 s ( 0.001 ms/b)
<sp|df>:        73920 b        14771 skpd ( 20.0%)    0.074 s ( 0.001 ms/b)
<sp|ff>:        16800 b         2872 skpd ( 17.1%)    0.024 s ( 0.002 ms/b)
<sd|sd>:       179101 b        40039 skpd ( 22.4%)    0.068 s ( 0.000 ms/b)
<sd|sf>:       138736 b        35865 skpd ( 25.9%)    0.059 s ( 0.001 ms/b)
<sd|pp>:       193752 b        38274 skpd ( 19.8%)    0.117 s ( 0.001 ms/b)
<sd|pd>:       203320 b        47844 skpd ( 23.5%)    0.174 s ( 0.001 ms/b)
<sd|pf>:        75348 b        17159 skpd ( 22.8%)    0.084 s ( 0.001 ms/b)
<sd|dd>:        58006 b        12929 skpd ( 22.3%)    0.108 s ( 0.002 ms/b)
<sd|df>:        39468 b         8913 skpd ( 22.6%)    0.079 s ( 0.003 ms/b)
<sd|ff>:         8970 b         1758 skpd ( 19.6%)    0.027 s ( 0.004 ms/b)
<sf|sf>:        27028 b         7884 skpd ( 29.2%)    0.017 s ( 0.001 ms/b)
<sf|pp>:        75168 b        16542 skpd ( 22.0%)    0.069 s ( 0.001 ms/b)
<sf|pd>:        78880 b        21362 skpd ( 27.1%)    0.102 s ( 0.002 ms/b)
<sf|pf>:        29232 b         7688 skpd ( 26.3%)    0.051 s ( 0.002 ms/b)
<sf|dd>:        22504 b         6061 skpd ( 26.9%)    0.066 s ( 0.004 ms/b)
<sf|df>:        15312 b         4267 skpd ( 27.9%)    0.047 s ( 0.004 ms/b)
<sf|ff>:         3480 b          823 skpd ( 23.6%)    0.017 s ( 0.006 ms/b)
<pp|pp>:        52650 b         8542 skpd ( 16.2%)    0.050 s ( 0.001 ms/b)
<pp|pd>:       110160 b        21886 skpd ( 19.9%)    0.149 s ( 0.002 ms/b)
<pp|pf>:        40824 b         7478 skpd ( 18.3%)    0.073 s ( 0.002 ms/b)
<pp|dd>:        31428 b         6064 skpd ( 19.3%)    0.088 s ( 0.003 ms/b)
<pp|df>:        21384 b         4018 skpd ( 18.8%)    0.067 s ( 0.004 ms/b)
<pp|ff>:         4860 b          788 skpd ( 16.2%)    0.022 s ( 0.005 ms/b)
<pd|pd>:        57970 b        13983 skpd ( 24.1%)    0.144 s ( 0.003 ms/b)
<pd|pf>:        42840 b         9962 skpd ( 23.3%)    0.126 s ( 0.004 ms/b)
<pd|dd>:        32980 b         7462 skpd ( 22.6%)    0.161 s ( 0.006 ms/b)
<pd|df>:        22440 b         5296 skpd ( 23.6%)    0.127 s ( 0.007 ms/b)
<pd|ff>:         5100 b         1093 skpd ( 21.4%)    0.042 s ( 0.010 ms/b)
<pf|pf>:         8001 b         1803 skpd ( 22.5%)    0.036 s ( 0.006 ms/b)
<pf|dd>:        12222 b         2830 skpd ( 23.2%)    0.087 s ( 0.009 ms/b)
<pf|df>:         8316 b         2034 skpd ( 24.5%)    0.068 s ( 0.011 ms/b)
<pf|ff>:         1890 b          365 skpd ( 19.3%)    0.025 s ( 0.017 ms/b)
<dd|dd>:         4753 b         1037 skpd ( 21.8%)    0.050 s ( 0.014 ms/b)
<dd|df>:         6402 b         1465 skpd ( 22.9%)    0.078 s ( 0.016 ms/b)
<dd|ff>:         1455 b          328 skpd ( 22.5%)    0.025 s ( 0.022 ms/b)
<df|df>:         2211 b          537 skpd ( 24.3%)    0.032 s ( 0.019 ms/b)
<df|ff>:          990 b          220 skpd ( 22.2%)    0.024 s ( 0.031 ms/b)
<ff|ff>:          120 b           18 skpd ( 15.0%)    0.006 s ( 0.055 ms/b)
Recanonicalizing the internal orbitals
Recanonicalizing the virtual orbitals
Time needed for Fock operator              ...            4.027 sec
Reference energy                           ...  -5262.701139995

------------------------------
PARTIAL COULOMB TRANSFORMATION
------------------------------

Transformation type                        ... one-operator
Dimension of the basis                     ...  231
Number of internal MOs                     ...  210 (21-230)
Pair cutoff                                ... 0.000e+00 Eh
Number of AO pairs included in the trafo   ... 26767
Total Number of distinct AO pairs          ... 26796
Memory devoted for trafo                   ... 2000.0 MB 
Max. Number of MO pairs treated together   ... 9782      
Max. Number of MOs treated per batch       ...   42      
Number Format for Storage                  ... Double (8 Byte)
AO-integral source                         ... DIRECT
Integral package used                      ... LIBINT

Starting integral evaluation:
<ss|**>:      4101335 b        0 skpd     0.925 s (  0.000 ms/b)
<sp|**>:      4429600 b        0 skpd     2.222 s (  0.001 ms/b)
<sd|**>:      2365090 b        0 skpd     2.054 s (  0.001 ms/b)
<sf|**>:       917560 b        0 skpd     1.149 s (  0.001 ms/b)
<pp|**>:      1281420 b        0 skpd     1.785 s (  0.001 ms/b)
<pd|**>:      1344700 b        0 skpd     3.083 s (  0.002 ms/b)
<pf|**>:       498330 b        0 skpd     1.615 s (  0.003 ms/b)
<dd|**>:       383635 b        0 skpd     1.706 s (  0.004 ms/b)
<df|**>:       261030 b        0 skpd     1.515 s (  0.006 ms/b)
<ff|**>:        59325 b        0 skpd     0.481 s (  0.008 ms/b)
Closing buffer AOJ ( 1.03 GB; CompressionRatio= 1.00)
Collecting buffer AOJ 
    ... done with AO integral generation
Number of MO pairs included in the trafo   ... 22155
    ... Now sorting integrals
IBATCH = 1 of  1
Closing buffer JAO ( 1.11 GB; CompressionRatio= 1.00)
Collecting buffer JAO 
TOTAL TIME for half transformation         ...    31.005 sec
AO-integral generation                     ...    10.557 sec
Half transformation                        ...     5.984 sec
J-integral sorting                         ...    13.506 sec

-------------------------- SECOND HALF TRANSFORMATION -------------------------
Formation of (pq|rs)                       ... ok (    21.119 sec)
Integral sorting                           ... ok (    14.276 sec)

------------------
CLOSED SHELL GUESS
------------------

Initial guess performed in     0.117 sec
E(0)                                       ...  -5262.701139995
E(MP2)                                     ...     -1.066588706
Initial E(tot)                             ...  -5263.767728701
<T|T>                                      ...      0.326546332
Number of pairs included                   ... 378
Total number of pairs                      ... 378

------------------------------------------------
                  RHF COUPLED CLUSTER ITERATIONS
------------------------------------------------

Number of amplitudes to be optimized       ... 12663783

Iter       E(tot)           E(Corr)          Delta-E          Residual     Time
  0  -5263.767728701     -1.066588706      0.000000000      0.019835585   22.29
                           *** Turning on DIIS ***
  1  -5263.786185819     -1.085045823     -0.018457118      0.006070624   25.80
  2  -5263.809450998     -1.108311003     -0.023265179      0.006412191   28.82
  3  -5263.815325636     -1.114185641     -0.005874638      0.003208506   25.88
  4  -5263.816626499     -1.115486504     -0.001300863      0.002576174   26.26
  5  -5263.817048498     -1.115908503     -0.000421999      0.001292447   26.47
  6  -5263.817227684     -1.116087689     -0.000179186      0.000574447   26.61
  7  -5263.817291750     -1.116151754     -0.000064066      0.000185944   26.87
  8  -5263.817299452     -1.116159457     -0.000007702      0.000103445   26.74
  9  -5263.817305262     -1.116165267     -0.000005811      0.000042995   26.75
 10  -5263.817304471     -1.116164476      0.000000791      0.000011687   26.78
               --- The Coupled-Cluster iterations have converged ---

----------------------
COUPLED CLUSTER ENERGY
----------------------

E(0)                                       ...  -5262.701139995
E(CORR)                                    ...     -1.116164476
E(TOT)                                     ...  -5263.817304471
Singles Norm <S|S>**1/2                    ...      0.096753798  
T1 diagnostic                              ...      0.013166524  

------------------
LARGEST AMPLITUDES
------------------
  42-> 48  -1-> -1       0.070188
  37-> 48  -1-> -1       0.037991
  42-> 48  42-> 48       0.037466
  47-> 48  47-> 48       0.029166
  37-> 48  37-> 48       0.020578
  45-> 77  45-> 77       0.017617
  35-> 48  35-> 48       0.017426
  44-> 77  44-> 77       0.017293
  40-> 82  40-> 82       0.016841
  45-> 72  45-> 72       0.016635
  46-> 73  46-> 73       0.016441
  39-> 83  39-> 83       0.016316
  44-> 72  44-> 72       0.016066
  31-> 48  31-> 48       0.015910
  43-> 73  43-> 73       0.015890
  42-> 70  42-> 70       0.015815


        !!!!!!!!!!!!!!!!!!!!!!!!!!!!!!!!!!!!!!!!!!!!!!!!!!!!!!!!!!!!!!!!!!!!!!!!!! 
        !  Warning: Densities are linearized densities !                         !
        !!!!!!!!!!!!!!!!!!!!!!!!!!!!!!!!!!!!!!!!!!!!!!!!!!!!!!!!!!!!!!!!!!!!!!!!!! 

Trace of internal density part =     -0.774214858
Trace of external density part =      0.774214858
----------------------
RHF TRIPLES CORRECTION (Algorithm 1)
----------------------

Multiplier for the singles contribution    ...      1.000000000

10% done
20% done
30% done
40% done
50% done
60% done
70% done
80% done
90% done

Triples Correction (T)                     ...     -0.041337273
Scaling of triples based on CCSD energies (Peterson et al. Molecular Physics 113, 1551 (2015))
E(T*) = f*E(T) where f = E(F12-CCSD)/E(CCSD) 
f = CCSD (with F12)/ CCSD (without F12)    ...      1.000000000
Scaled triples correction (T)              ...     -0.041337273

Final correlation energy                   ...     -1.157501748
E(CCSD)                                    ...  -5263.817304471
E(CCSD(T))                                 ...  -5263.858641744

NORM  =      1.396468726 sqrt=     1.181722779
W(HF) =      0.716091940
------------------------------------------------------------------------------
                           ORCA POPULATION ANALYSIS
------------------------------------------------------------------------------
Input electron density              ... manual_332_sp.mdcip
BaseName (.gbw .S,...)              ... manual_332_sp

                    ********************************
                    * MULLIKEN POPULATION ANALYSIS *
                    ********************************

-----------------------
MULLIKEN ATOMIC CHARGES
-----------------------
   0 C :   -0.363425
   1 C :    0.105966
   2 C :   -0.363871
   3 Br:   -0.782613
   4 H :    0.155705
   5 H :    0.167158
   6 H :    0.167908
   7 H :    0.201963
   8 H :    0.155820
   9 H :    0.168137
  10 H :    0.167876
  11 Br:   -0.780623
Sum of atomic charges:   -1.0000000

--------------------------------
MULLIKEN REDUCED ORBITAL CHARGES
--------------------------------
  0 C s       :     3.214648  s :     3.214648
      pz      :     1.047937  p :     3.050119
      px      :     0.955706
      py      :     1.046475
      dz2     :     0.023394  d :     0.090013
      dxz     :     0.015357
      dyz     :     0.012494
      dx2y2   :     0.023474
      dxy     :     0.015294
      f0      :     0.001707  f :     0.008645
      f+1     :     0.001078
      f-1     :     0.001004
      f+2     :     0.000976
      f-2     :     0.001040
      f+3     :     0.001159
      f-3     :     0.001682
  1 C s       :     3.176487  s :     3.176487
      pz      :     0.774400  p :     2.543896
      px      :     1.009330
      py      :     0.760166
      dz2     :     0.029568  d :     0.162069
      dxz     :     0.029148
      dyz     :     0.033198
      dx2y2   :     0.040950
      dxy     :     0.029204
      f0      :     0.000937  f :     0.011583
      f+1     :     0.002054
      f-1     :     0.001268
      f+2     :     0.002008
      f-2     :     0.001457
      f+3     :     0.002177
      f-3     :     0.001682
  2 C s       :     3.215018  s :     3.215018
      pz      :     1.061976  p :     3.050373
      px      :     0.922569
      py      :     1.065827
      dz2     :     0.022424  d :     0.089834
      dxz     :     0.016420
      dyz     :     0.012227
      dx2y2   :     0.022338
      dxy     :     0.016425
      f0      :     0.001654  f :     0.008646
      f+1     :     0.001135
      f-1     :     0.001003
      f+2     :     0.000945
      f-2     :     0.001021
      f+3     :     0.001297
      f-3     :     0.001590
  3 Brs       :     7.955154  s :     7.955154
      pz      :     5.910380  p :    17.705458
      px      :     5.956414
      py      :     5.838663
      dz2     :     2.020797  d :    10.107204
      dxz     :     2.019939
      dyz     :     2.023541
      dx2y2   :     2.022387
      dxy     :     2.020540
      f0      :     0.002086  f :     0.014798
      f+1     :     0.002011
      f-1     :     0.002178
      f+2     :     0.002207
      f-2     :     0.002066
      f+3     :     0.002121
      f-3     :     0.002129
  4 H s       :     0.820129  s :     0.820129
      pz      :     0.006308  p :     0.024166
      px      :     0.011613
      py      :     0.006245
  5 H s       :     0.808570  s :     0.808570
      pz      :     0.013922  p :     0.024272
      px      :     0.004870
      py      :     0.005480
  6 H s       :     0.807773  s :     0.807773
      pz      :     0.005509  p :     0.024319
      px      :     0.004878
      py      :     0.013932
  7 H s       :     0.770685  s :     0.770685
      pz      :     0.011344  p :     0.027352
      px      :     0.004932
      py      :     0.011076
  8 H s       :     0.819993  s :     0.819993
      pz      :     0.007058  p :     0.024187
      px      :     0.009969
      py      :     0.007160
  9 H s       :     0.807563  s :     0.807563
      pz      :     0.005484  p :     0.024300
      px      :     0.005032
      py      :     0.013784
 10 H s       :     0.807833  s :     0.807833
      pz      :     0.013765  p :     0.024291
      px      :     0.004957
      py      :     0.005569
 11 Brs       :     7.954901  s :     7.954901
      pz      :     5.841273  p :    17.703626
      px      :     5.956774
      py      :     5.905579
      dz2     :     2.022336  d :    10.107289
      dxz     :     2.020555
      dyz     :     2.023667
      dx2y2   :     2.020806
      dxy     :     2.019924
      f0      :     0.002145  f :     0.014806
      f+1     :     0.002122
      f-1     :     0.002267
      f+2     :     0.002162
      f-2     :     0.002068
      f+3     :     0.002010
      f-3     :     0.002032


                     *******************************
                     * LOEWDIN POPULATION ANALYSIS *
                     *******************************

----------------------
LOEWDIN ATOMIC CHARGES
----------------------
   0 C :   -0.326498
   1 C :   -0.192103
   2 C :   -0.324569
   3 Br:   -0.569391
   4 H :    0.136253
   5 H :    0.141886
   6 H :    0.141858
   7 H :    0.138420
   8 H :    0.136302
   9 H :    0.142414
  10 H :    0.142387
  11 Br:   -0.566959

-------------------------------
LOEWDIN REDUCED ORBITAL CHARGES
-------------------------------
  0 C s       :     2.833853  s :     2.833853
      pz      :     1.070708  p :     3.172467
      px      :     1.030573
      py      :     1.071186
      dz2     :     0.075679  d :     0.289171
      dxz     :     0.049259
      dyz     :     0.029167
      dx2y2   :     0.086256
      dxy     :     0.048809
      f0      :     0.004848  f :     0.031007
      f+1     :     0.003107
      f-1     :     0.003094
      f+2     :     0.004079
      f-2     :     0.006218
      f+3     :     0.003777
      f-3     :     0.005884
  1 C s       :     2.877702  s :     2.877702
      pz      :     0.847913  p :     2.776990
      px      :     1.093228
      py      :     0.835849
      dz2     :     0.079651  d :     0.490590
      dxz     :     0.093642
      dyz     :     0.099996
      dx2y2   :     0.124193
      dxy     :     0.093108
      f0      :     0.003168  f :     0.046822
      f+1     :     0.009140
      f-1     :     0.004358
      f+2     :     0.007644
      f-2     :     0.006287
      f+3     :     0.009589
      f-3     :     0.006636
  2 C s       :     2.833461  s :     2.833461
      pz      :     1.072931  p :     3.171738
      px      :     1.025024
      py      :     1.073783
      dz2     :     0.069896  d :     0.288362
      dxz     :     0.056589
      dyz     :     0.025196
      dx2y2   :     0.080462
      dxy     :     0.056219
      f0      :     0.004799  f :     0.031008
      f+1     :     0.003582
      f-1     :     0.002687
      f+2     :     0.003662
      f-2     :     0.005913
      f+3     :     0.004684
      f-3     :     0.005680
  3 Brs       :     7.863698  s :     7.863698
      pz      :     5.876858  p :    17.570306
      px      :     5.929404
      py      :     5.764044
      dz2     :     2.022740  d :    10.120169
      dxz     :     2.020307
      dyz     :     2.029244
      dx2y2   :     2.025034
      dxy     :     2.022844
      f0      :     0.002126  f :     0.015219
      f+1     :     0.002026
      f-1     :     0.002271
      f+2     :     0.002355
      f-2     :     0.002095
      f+3     :     0.002160
      f-3     :     0.002186
  4 H s       :     0.796683  s :     0.796683
      pz      :     0.017985  p :     0.067064
      px      :     0.031290
      py      :     0.017789
  5 H s       :     0.790496  s :     0.790496
      pz      :     0.039849  p :     0.067618
      px      :     0.012906
      py      :     0.014863
  6 H s       :     0.790426  s :     0.790426
      pz      :     0.014915  p :     0.067716
      px      :     0.012957
      py      :     0.039844
  7 H s       :     0.786809  s :     0.786809
      pz      :     0.031208  p :     0.074771
      px      :     0.013253
      py      :     0.030310
  8 H s       :     0.796556  s :     0.796556
      pz      :     0.020274  p :     0.067142
      px      :     0.026328
      py      :     0.020541
  9 H s       :     0.789889  s :     0.789889
      pz      :     0.014895  p :     0.067698
      px      :     0.013003
      py      :     0.039800
 10 H s       :     0.789952  s :     0.789952
      pz      :     0.039650  p :     0.067661
      px      :     0.012844
      py      :     0.015167
 11 Brs       :     7.863115  s :     7.863115
      pz      :     5.768195  p :    17.568284
      px      :     5.929797
      py      :     5.870291
      dz2     :     2.024780  d :    10.120331
      dxz     :     2.022889
      dyz     :     2.029456
      dx2y2   :     2.022878
      dxy     :     2.020328
      f0      :     0.002166  f :     0.015230
      f+1     :     0.002162
      f-1     :     0.002426
      f+2     :     0.002295
      f-2     :     0.002098
      f+3     :     0.002023
      f-3     :     0.002059


------------------
HIRSHFELD ANALYSIS
------------------

Total integrated alpha density =     48.002208785
Total integrated beta density  =     48.002208785

  ATOM     CHARGE      SPIN  
   0 C   -0.074104    0.000000
   1 C    0.145121    0.000000
   2 C   -0.073161    0.000000
   3 Br  -0.646100    0.000000
   4 H    0.039847    0.000000
   5 H    0.040927    0.000000
   6 H    0.040726    0.000000
   7 H    0.041382    0.000000
   8 H    0.040812    0.000000
   9 H    0.042021    0.000000
  10 H    0.041986    0.000000
  11 Br  -0.643873    0.000000

  TOTAL  -1.004418    0.000000     63826.2


                      *****************************
                      * MAYER POPULATION ANALYSIS *
                      *****************************

  NA   - Mulliken gross atomic population
  ZA   - Total nuclear charge
  QA   - Mulliken gross atomic charge
  VA   - Mayer's total valence
  BVA  - Mayer's bonded valence
  FA   - Mayer's free valence

  ATOM       NA         ZA         QA         VA         BVA        FA
  0 C      6.3634     6.0000    -0.3634     3.9583     3.5981     0.3602
  1 C      5.8940     6.0000     0.1060     3.7102     3.3354     0.3748
  2 C      6.3639     6.0000    -0.3639     3.9593     3.5994     0.3599
  3 Br    35.7826    35.0000    -0.7826     1.0583     0.3385     0.7198
  4 H      0.8443     1.0000     0.1557     0.9863     0.9243     0.0620
  5 H      0.8328     1.0000     0.1672     0.9786     0.9142     0.0644
  6 H      0.8321     1.0000     0.1679     0.9786     0.9142     0.0644
  7 H      0.7980     1.0000     0.2020     0.9848     0.9254     0.0594
  8 H      0.8442     1.0000     0.1558     0.9859     0.9240     0.0619
  9 H      0.8319     1.0000     0.1681     0.9785     0.9141     0.0643
 10 H      0.8321     1.0000     0.1679     0.9785     0.9142     0.0644
 11 Br    35.7806    35.0000    -0.7806     1.0613     0.3415     0.7199

  Mayer bond orders larger than 0.100000
B(  0-C ,  1-C ) :   0.9412 B(  0-C ,  4-H ) :   0.9199 B(  0-C ,  5-H ) :   0.8907 
B(  0-C ,  6-H ) :   0.8895 B(  1-C ,  2-C ) :   0.9416 B(  1-C ,  3-Br) :   0.2794 
B(  1-C ,  7-H ) :   0.8855 B(  1-C , 11-Br) :   0.2821 B(  2-C ,  8-H ) :   0.9198 
B(  2-C ,  9-H ) :   0.8901 B(  2-C , 10-H ) :   0.8900 



------------------------------------------------------------------------------- 
                                     TIMINGS                                   
------------------------------------------------------------------------------- 


Total execution time                   ...      824.643 sec

Fock Matrix Formation                  ...        4.027 sec (  0.5%)
Initial Guess                          ...        0.117 sec (  0.0%)
DIIS Solver                            ...       18.406 sec (  2.2%)
State Vector Update                    ...        0.612 sec (  0.1%)
Sigma-vector construction              ...      270.250 sec ( 32.8%)
  <0|H|D>                              ...        0.157 sec (  0.1% of sigma)
  <D|H|D>(0-ext)                       ...       29.512 sec ( 10.9% of sigma)
  <D|H|D>(2-ext Fock)                  ...        0.460 sec (  0.2% of sigma)
  <D|H|D>(2-ext)                       ...       38.039 sec ( 14.1% of sigma)
  <D|H|D>(4-ext)                       ...       23.675 sec (  8.8% of sigma)
  <D|H|D>(4-ext-corr)                  ...       20.994 sec (  7.8% of sigma)
  <S|H|0>                              ...        0.087 sec (  0.0% of sigma)
  <S|H|S>                              ...        0.294 sec (  0.1% of sigma)
  <S|H|D>(1-ext)                       ...        3.713 sec (  1.4% of sigma)
  <D|H|S>(1-ext)                       ...        6.536 sec (  2.4% of sigma)
  <S|H|D>(3-ext)                       ...       18.605 sec (  6.9% of sigma)
  Fock-dressing                        ...       30.079 sec ( 11.1% of sigma)
  (ik|jl)-dressing                     ...       36.159 sec ( 13.4% of sigma)
  (ij|ab),(ia|jb)-dressing             ...       59.725 sec ( 22.1% of sigma)
  Pair energies                        ...        0.204 sec (  0.1% of sigma)
Total Time for computing (T)           ...      432.908 sec ( 52.5% of ALL)
  I/O of integral and amplitudes       ...       23.574 sec (  5.4% of (T))
  N**6 sorting step                    ...      150.082 sec ( 34.7% of (T))
  External N**7 contributions          ...      158.969 sec ( 36.7% of (T))
  Internal N**7 contributions          ...       44.109 sec ( 10.2% of (T))
  N**6 triples energy contributions    ...       56.170 sec ( 13.0% of (T))
One-particle density matrix            ...        0.413 sec (  0.1%)


-------------------------   --------------------
FINAL SINGLE POINT ENERGY     -5263.858641743654
-------------------------   --------------------


                            ***************************************
                            *     ORCA property calculations      *
                            ***************************************

                                    ---------------------
                                    Active property flags
                                    ---------------------
   (+) Dipole Moment


------------------------------------------------------------------------------
                       ORCA ELECTRIC PROPERTIES CALCULATION
------------------------------------------------------------------------------

Dipole Moment Calculation                       ... on
Quadrupole Moment Calculation                   ... off
Polarizability Calculation                      ... off
GBWName                                         ... manual_332_sp.gbw
Electron density file                           ... manual_332_sp.scfp
The origin for moment calculation is the CENTER OF MASS  = (-0.006908, -0.829987  1.083116)

-------------
DIPOLE MOMENT
-------------
                                X             Y             Z
Electronic contribution:      0.99746       6.90099       7.11949
Nuclear contribution   :     -1.17045      -8.05703      -8.29652
                        -----------------------------------------
Total Dipole Moment    :     -0.17299      -1.15604      -1.17703
                        -----------------------------------------
Magnitude (a.u.)       :      1.65884
Magnitude (Debye)      :      4.21644



--------------------
Rotational spectrum 
--------------------
 
Rotational constants in cm-1:     0.147622     0.015138     0.015120 
Rotational constants in MHz :  4425.582183   453.834568   453.283906 

 Dipole components along the rotational axes: 
x,y,z [a.u.] :     0.010329     1.526865    -0.648330 
x,y,z [Debye]:     0.026253     3.880983    -1.647925 

 

                           *** MDCI DENSITY ***

------------------------------------------------------------------------------
                       ORCA ELECTRIC PROPERTIES CALCULATION
------------------------------------------------------------------------------

Dipole Moment Calculation                       ... on
Quadrupole Moment Calculation                   ... off
Polarizability Calculation                      ... off
GBWName                                         ... manual_332_sp.gbw
Electron density file                           ... manual_332_sp.mdcip
The origin for moment calculation is the CENTER OF MASS  = (-0.006908, -0.829987  1.083116)

-------------
DIPOLE MOMENT
-------------
                                X             Y             Z
Electronic contribution:      1.01470       7.01345       7.23830
Nuclear contribution   :     -1.17045      -8.05703      -8.29652
                        -----------------------------------------
Total Dipole Moment    :     -0.15575      -1.04359      -1.05821
                        -----------------------------------------
Magnitude (a.u.)       :      1.49437
Magnitude (Debye)      :      3.79839



--------------------
Rotational spectrum 
--------------------
 
Rotational constants in cm-1:     0.147622     0.015138     0.015120 
Rotational constants in MHz :  4425.582183   453.834568   453.283906 

 Dipole components along the rotational axes: 
x,y,z [a.u.] :     0.012329     1.375400    -0.584185 
x,y,z [Debye]:     0.031338     3.495988    -1.484880 

 
[1631265634.455136] [comp0805:19486:0]            sys.c:618  UCX  ERROR shmget(size=2097152 flags=0xfb0) for mm_recv_desc failed: Operation not permitted, please check shared memory limits by 'ipcs -l'
[1631265634.455369] [comp0805:19488:0]            sys.c:618  UCX  ERROR shmget(size=2097152 flags=0xfb0) for mm_recv_desc failed: Operation not permitted, please check shared memory limits by 'ipcs -l'
[1631265634.456918] [comp0805:19487:0]            sys.c:618  UCX  ERROR shmget(size=2097152 flags=0xfb0) for mm_recv_desc failed: Operation not permitted, please check shared memory limits by 'ipcs -l'
[1631265634.468954] [comp0805:19489:0]            sys.c:618  UCX  ERROR shmget(size=2097152 flags=0xfb0) for mm_recv_desc failed: Operation not permitted, please check shared memory limits by 'ipcs -l'
[1631265634.477381] [comp0805:19489:0]            sys.c:618  UCX  ERROR shmget(size=2097152 flags=0xb80) for ucp_am_bufs failed: Operation not permitted, please check shared memory limits by 'ipcs -l'
[1631265634.478239] [comp0805:19488:0]            sys.c:618  UCX  ERROR shmget(size=2097152 flags=0xb80) for ucp_am_bufs failed: Operation not permitted, please check shared memory limits by 'ipcs -l'
[1631265634.478292] [comp0805:19486:0]            sys.c:618  UCX  ERROR shmget(size=2097152 flags=0xb80) for ucp_am_bufs failed: Operation not permitted, please check shared memory limits by 'ipcs -l'
[1631265634.481377] [comp0805:19487:0]            sys.c:618  UCX  ERROR shmget(size=2097152 flags=0xb80) for ucp_am_bufs failed: Operation not permitted, please check shared memory limits by 'ipcs -l'

Timings for individual modules:

Sum of individual times         ...      867.705 sec (=  14.462 min)
GTO integral calculation        ...        2.289 sec (=   0.038 min)   0.3 %
SCF iterations                  ...       38.981 sec (=   0.650 min)   4.5 %
MDCI module                     ...      826.435 sec (=  13.774 min)  95.2 %
                             ****ORCA TERMINATED NORMALLY****
TOTAL RUN TIME: 0 days 0 hours 14 minutes 28 seconds 965 msec
