
                                 *****************
                                 * O   R   C   A *
                                 *****************

           --- An Ab Initio, DFT and Semiempirical electronic structure package ---

                  #######################################################
                  #                        -***-                        #
                  #          Department of theory and spectroscopy      #
                  #               Directorship: Frank Neese             #
                  #        Max Planck Institute fuer Kohlenforschung    #
                  #                Kaiser Wilhelm Platz 1               #
                  #                 D-45470 Muelheim/Ruhr               #
                  #                      Germany                        #
                  #                                                     #
                  #                  All rights reserved                #
                  #                        -***-                        #
                  #######################################################


                         Program Version 4.2.1 -  RELEASE  -


 With contributions from (in alphabetic order):
   Daniel Aravena         : Magnetic Suceptibility
   Michael Atanasov       : Ab Initio Ligand Field Theory (pilot matlab implementation)
   Alexander A. Auer      : GIAO ZORA, VPT2
   Ute Becker             : Parallelization
   Giovanni Bistoni       : ED, misc. LED, open-shell LED, HFLD
   Martin Brehm           : Molecular dynamics
   Dmytro Bykov           : SCF Hessian
   Vijay G. Chilkuri      : MRCI spin determinant printing, contributions to CSF-ICE
   Dipayan Datta          : RHF DLPNO-CCSD density
   Achintya Kumar Dutta   : EOM-CC, STEOM-CC
   Dmitry Ganyushin       : Spin-Orbit,Spin-Spin,Magnetic field MRCI
   Miquel Garcia          : C-PCM Hessian, Gaussian charge scheme
   Yang Guo               : DLPNO-NEVPT2, CIM, IAO-localization
   Andreas Hansen         : Spin unrestricted coupled pair/coupled cluster methods
   Benjamin Helmich-Paris : CASSCF linear response (MC-RPA)
   Lee Huntington         : MR-EOM, pCC
   Robert Izsak           : Overlap fitted RIJCOSX, COSX-SCS-MP3, EOM
   Christian Kollmar      : KDIIS, OOCD, Brueckner-CCSD(T), CCSD density
   Simone Kossmann        : Meta GGA functionals, TD-DFT gradient, OOMP2, MP2 Hessian
   Martin Krupicka        : AUTO-CI
   Lucas Lang             : DCDCAS
   Dagmar Lenk            : GEPOL surface, SMD
   Dimitrios Liakos       : Extrapolation schemes; Compound Job, initial MDCI parallelization
   Dimitrios Manganas     : Further ROCIS development; embedding schemes
   Dimitrios Pantazis     : SARC Basis sets
   Taras Petrenko         : DFT Hessian,TD-DFT gradient, ASA, ECA, R-Raman, ABS, FL, XAS/XES, NRVS
   Peter Pinski           : DLPNO-MP2, DLPNO-MP2 Gradient
   Christoph Reimann      : Effective Core Potentials
   Marius Retegan         : Local ZFS, SOC
   Christoph Riplinger    : Optimizer, TS searches, QM/MM, DLPNO-CCSD(T), (RO)-DLPNO pert. Triples
   Tobias Risthaus        : Range-separated hybrids, TD-DFT gradient, RPA, STAB
   Michael Roemelt        : Original ROCIS implementation
   Masaaki Saitow         : Open-shell DLPNO-CCSD energy and density
   Barbara Sandhoefer     : DKH picture change effects
   Avijit Sen             : IP-ROCIS
   Kantharuban Sivalingam : CASSCF convergence, NEVPT2, FIC-MRCI
   Bernardo de Souza      : ESD, SOC TD-DFT
   Georgi Stoychev        : AutoAux, RI-MP2 NMR
   Willem Van den Heuvel  : Paramagnetic NMR
   Boris Wezisla          : Elementary symmetry handling
   Frank Wennmohs         : Technical directorship


 We gratefully acknowledge several colleagues who have allowed us to
 interface, adapt or use parts of their codes:
   Stefan Grimme, W. Hujo, H. Kruse,             : VdW corrections, initial TS optimization,
                  C. Bannwarth                     DFT functionals, gCP, sTDA/sTD-DF
   Ed Valeev, F. Pavosevic, A. Kumar             : LibInt (2-el integral package), F12 methods
   Garnet Chan, S. Sharma, J. Yang, R. Olivares  : DMRG
   Ulf Ekstrom                                   : XCFun DFT Library
   Mihaly Kallay                                 : mrcc  (arbitrary order and MRCC methods)
   Andreas Klamt, Michael Diedenhofen            : otool_cosmo (COSMO solvation model)
   Jiri Pittner, Ondrej Demel                    : Mk-CCSD
   Frank Weinhold                                : gennbo (NPA and NBO analysis)
   Christopher J. Cramer and Donald G. Truhlar   : smd solvation model
   Lars Goerigk                                  : TD-DFT with DH, B97 family of functionals
   V. Asgeirsson, H. Jonsson                     : NEB implementation
   FAccTs GmbH                                   : IRC, NEB, NEB-TS, Multilevel, MM, QM/MM, CI optimization
   S Lehtola, MJT Oliveira, MAL Marques          : LibXC Library


 Your calculation uses the libint2 library for the computation of 2-el integrals
 For citations please refer to: http://libint.valeyev.net

 Your ORCA version has been built with support for libXC version: 4.2.3
 For citations please refer to: https://tddft.org/programs/libxc/

 This ORCA versions uses:
   CBLAS   interface :  Fast vector & matrix operations
   LAPACKE interface :  Fast linear algebra routines
   SCALAPACK package :  Parallel linear algebra routines


----- Orbital basis set information -----
Your calculation utilizes the basis: def2-TZVP
   F. Weigend and R. Ahlrichs, Phys. Chem. Chem. Phys. 7, 3297 (2005).

cite the ECPs for I  [Def2-ECP] as follows:
Ce-Yb(ecp-28): M. Dolg, H. Stoll, H.Preuss, J. Chem. Phys., 1989, 90, 1730-1734.
Y-Cd(ecp-28), Hf-Hg(ecp-46): D. Andrae,U. Haeussermann, M. Dolg, H. Stoll, H. Preuss, Theor. Chim. Acta, 1990, 77, 123-141.
In-Sb(ecp-28), Tl-Bi(ecp-46): B. Metz, H. Stoll, M. Dolg, J. Chem. Phys., 2000, 113, 2563-2569.
Te-Xe(ecp-28), Po-Rn(ecp-46): K. A. Peterson, D. Figgen, E. Goll, H. Stoll, M. Dolg, J. Chem. Phys., 2003, 119, 11113-11123.
Rb(ecp-28), Cs(ecp-46): T. Leininger, A. Nicklass, W. Kuechle, H. Stoll, M. Dolg, A. Bergner, Chem. Phys. Lett., 1996, 255, 274-280.
Sr(ecp-28), Ba(ecp-46): M. Kaupp, P. V. Schleyer, H. Stoll and H. Preuss, J. Chem. Phys., 1991, 94, 1360-1366.
La(ecp-46): M. Dolg, H. Stoll, A. Savin, H. Preuss, Theor. Chim. Acta, 1989, 75, 173-194.
Lu(ecp-28): X. Cao, M. Dolg, J. Chem. Phys., 2001, 115, 7348-7355.

ECP parameters for I  [Def2-ECP] have been obtained from:
TURBOMOLE (7.0.2)

================================================================================
                                        WARNINGS
                       Please study these warnings very carefully!
================================================================================


WARNING: MDCI localization with Augmented Hessian Foster-Boys
  ===> : Switching off randomization!

WARNING: Post HF methods need fully converged wavefunctions
  ===> : Setting SCFConvForced true
         You can overwrite this default with %scf ConvForced false 


INFO   : the flag for use of LIBINT has been found!

================================================================================
                                       INPUT FILE
================================================================================
NAME = manual_356_sp.inp
|  1> ! SP CCSD(T) def2-TZVP CPCM(Acetone)
|  2> %cpcm
|  3> surfacetype vdw_gaussian
|  4> end
|  5> %geom MaxIter 100 end
|  6> %output 
|  7> xyzfile=True 
|  8> end 
|  9> %scf 
| 10> maxiter 250 
| 11> end
| 12> %output
| 13> Print[P_Hirshfeld] = 1
| 14> end
| 15> % maxcore
| 16> 4000
| 17> %pal nprocs 4
| 18> end
| 19> *xyz -1 1
| 20>   C   5.34841174482189     -0.21909250856250     -0.64969092834627
| 21>   C   6.39696411885791     -0.33696072435926      0.43804451318519
| 22>   C   7.28173437970596      0.86932284552241      0.53047022809800
| 23>   I   9.18361893576078      0.29319311191740     -1.18809789017185
| 24>   H   4.68771959240242     -1.09873246250738     -0.67129870615145
| 25>   H   5.82338582895592     -0.11816095514854     -1.63911584051037
| 26>   H   4.72694532064188      0.67193290420493     -0.46772199901849
| 27>   H   7.01697805362923     -1.23661866698422      0.30107574516286
| 28>   H   5.91420844226879     -0.43719781561668      1.42268977561440
| 29>   H   7.07900512063275      1.76164251995885     -0.05288659350129
| 30>   H   8.01875947044271      0.95726812696601      1.32484615868553
| 31>   Cl  5.80679141187945      2.14153956460897      2.10202425695372
| 32> *
| 33> 
| 34>                          ****END OF INPUT****
================================================================================

                       ****************************
                       * Single Point Calculation *
                       ****************************

---------------------------------
CARTESIAN COORDINATES (ANGSTROEM)
---------------------------------
  C      5.348412   -0.219093   -0.649691
  C      6.396964   -0.336961    0.438045
  C      7.281734    0.869323    0.530470
  I      9.183619    0.293193   -1.188098
  H      4.687720   -1.098732   -0.671299
  H      5.823386   -0.118161   -1.639116
  H      4.726945    0.671933   -0.467722
  H      7.016978   -1.236619    0.301076
  H      5.914208   -0.437198    1.422690
  H      7.079005    1.761643   -0.052887
  H      8.018759    0.957268    1.324846
  Cl     5.806791    2.141540    2.102024

----------------------------
CARTESIAN COORDINATES (A.U.)
----------------------------
  NO LB      ZA    FRAG     MASS         X           Y           Z
   0 C     6.0000    0    12.011   10.107033   -0.414025   -1.227738
   1 C     6.0000    0    12.011   12.088510   -0.636763    0.827784
   2 C     6.0000    0    12.011   13.760484    1.642782    1.002443
   3 I    25.0000*   0   126.900   17.354525    0.554055   -2.245180
   4 H     1.0000    0     1.008    8.858506   -2.076303   -1.268571
   5 H     1.0000    0     1.008   11.004604   -0.223292   -3.097480
   6 H     1.0000    0     1.008    8.932632    1.269769   -0.883866
   7 H     1.0000    0     1.008   13.260167   -2.336871    0.568951
   8 H     1.0000    0     1.008   11.176234   -0.826184    2.688494
   9 H     1.0000    0     1.008   13.377381    3.329022   -0.099941
  10 H     1.0000    0     1.008   15.153259    1.808975    2.503596
  11 Cl   17.0000    0    35.453   10.973245    4.046923    3.972250
* core charge reduced due to ECP

--------------------------------
INTERNAL COORDINATES (ANGSTROEM)
--------------------------------
 C      0   0   0     0.000000000000     0.00000000     0.00000000
 C      1   0   0     1.515428450358     0.00000000     0.00000000
 C      2   1   0     1.498826533734   112.96129578     0.00000000
 I      3   2   1     2.627273627097   102.15169238   272.14540723
 H      1   2   3     1.100339704322   111.55380186   182.22795169
 H      1   2   3     1.102156620397   110.68923062    61.53452716
 H      1   2   3     1.101480591668   109.55587510   301.91964040
 H      2   1   3     1.101163991625   111.33693962   236.38722300
 H      2   1   3     1.101193357484   110.21562461   118.45650727
 H      3   2   1     1.085190644623   121.22171187     7.15685690
 H      3   2   1     1.087186035599   120.68667959   174.46407271
 Cl     3   2   1     2.502753324696    95.73611790    87.77416366

---------------------------
INTERNAL COORDINATES (A.U.)
---------------------------
 C      0   0   0     0.000000000000     0.00000000     0.00000000
 C      1   0   0     2.863744746730     0.00000000     0.00000000
 C      2   1   0     2.832371671012   112.96129578     0.00000000
 I      3   2   1     4.964827634086   102.15169238   272.14540723
 H      1   2   3     2.079340695448   111.55380186   182.22795169
 H      1   2   3     2.082774169238   110.68923062    61.53452716
 H      1   2   3     2.081496660082   109.55587510   301.91964040
 H      2   1   3     2.080898372708   111.33693962   236.38722300
 H      2   1   3     2.080953866138   110.21562461   118.45650727
 H      3   2   1     2.050713121431   121.22171187     7.15685690
 H      3   2   1     2.054483863905   120.68667959   174.46407271
 Cl     3   2   1     4.729518364436    95.73611790    87.77416366

---------------------
BASIS SET INFORMATION
---------------------
There are 4 groups of distinct atoms

 Group   1 Type C   : 11s6p2d1f contracted to 5s3p2d1f pattern {62111/411/11/1}
 Group   2 Type I   : 11s10p8d2f contracted to 6s5p3d2f pattern {521111/34111/611/11}
 Group   3 Type H   : 5s1p contracted to 3s1p pattern {311/1}
 Group   4 Type Cl  : 14s9p3d1f contracted to 5s5p2d1f pattern {73211/51111/21/1}

Atom   0C    basis set group =>   1
Atom   1C    basis set group =>   1
Atom   2C    basis set group =>   1
Atom   3I    basis set group =>   2
Atom   4H    basis set group =>   3
Atom   5H    basis set group =>   3
Atom   6H    basis set group =>   3
Atom   7H    basis set group =>   3
Atom   8H    basis set group =>   3
Atom   9H    basis set group =>   3
Atom  10H    basis set group =>   3
Atom  11Cl   basis set group =>   4
-------------------------
ECP PARAMETER INFORMATION
-------------------------

 Group 1, Type I  ECP Def2-ECP (replacing 28 core electrons, lmax=3)

Atom   3I    ECP group =>   1

[1631549888.901850] [comp0807:248396:0]            sys.c:618  UCX  ERROR shmget(size=2097152 flags=0xfb0) for mm_recv_desc failed: Operation not permitted, please check shared memory limits by 'ipcs -l'
[1631549888.907960] [comp0807:248394:0]            sys.c:618  UCX  ERROR shmget(size=2097152 flags=0xfb0) for mm_recv_desc failed: Operation not permitted, please check shared memory limits by 'ipcs -l'
[1631549888.919409] [comp0807:248397:0]            sys.c:618  UCX  ERROR shmget(size=2097152 flags=0xfb0) for mm_recv_desc failed: Operation not permitted, please check shared memory limits by 'ipcs -l'
[1631549888.927435] [comp0807:248395:0]            sys.c:618  UCX  ERROR shmget(size=2097152 flags=0xfb0) for mm_recv_desc failed: Operation not permitted, please check shared memory limits by 'ipcs -l'
[1631549888.934890] [comp0807:248397:0]            sys.c:618  UCX  ERROR shmget(size=2097152 flags=0xb80) for ucp_am_bufs failed: Operation not permitted, please check shared memory limits by 'ipcs -l'
[1631549888.935315] [comp0807:248394:0]            sys.c:618  UCX  ERROR shmget(size=2097152 flags=0xb80) for ucp_am_bufs failed: Operation not permitted, please check shared memory limits by 'ipcs -l'
[1631549888.939413] [comp0807:248396:0]            sys.c:618  UCX  ERROR shmget(size=2097152 flags=0xb80) for ucp_am_bufs failed: Operation not permitted, please check shared memory limits by 'ipcs -l'
[1631549888.940771] [comp0807:248395:0]            sys.c:618  UCX  ERROR shmget(size=2097152 flags=0xb80) for ucp_am_bufs failed: Operation not permitted, please check shared memory limits by 'ipcs -l'


           ************************************************************
           *        Program running with 4 parallel MPI-processes     *
           *              working on a common directory               *
           ************************************************************
------------------------------------------------------------------------------
                           ORCA GTO INTEGRAL CALCULATION
------------------------------------------------------------------------------

                         BASIS SET STATISTICS AND STARTUP INFO

 # of primitive gaussian shells          ...  160
 # of primitive gaussian functions       ...  352
 # of contracted shells                  ...   90
 # of contracted basis functions         ...  222
 Highest angular momentum                ...    3
 Maximum contraction depth               ...    7
 Integral package used                   ... LIBINT
 Integral threshhold            Thresh   ...  1.000e-10
 Primitive cut-off              TCut     ...  1.000e-11


------------------------------ INTEGRAL EVALUATION ----------------------------


 * One electron integrals 

   ECP integrals                         ... done
 Pre-screening matrix                    ... done
 Shell pair data                         ... done (   0.001 sec)

[1631549890.316320] [comp0807:248417:0]            sys.c:618  UCX  ERROR shmget(size=2097152 flags=0xfb0) for mm_recv_desc failed: Operation not permitted, please check shared memory limits by 'ipcs -l'
[1631549890.336178] [comp0807:248415:0]            sys.c:618  UCX  ERROR shmget(size=2097152 flags=0xfb0) for mm_recv_desc failed: Operation not permitted, please check shared memory limits by 'ipcs -l'
[1631549890.337540] [comp0807:248416:0]            sys.c:618  UCX  ERROR shmget(size=2097152 flags=0xfb0) for mm_recv_desc failed: Operation not permitted, please check shared memory limits by 'ipcs -l'
[1631549890.347335] [comp0807:248418:0]            sys.c:618  UCX  ERROR shmget(size=2097152 flags=0xfb0) for mm_recv_desc failed: Operation not permitted, please check shared memory limits by 'ipcs -l'
[1631549890.355549] [comp0807:248417:0]            sys.c:618  UCX  ERROR shmget(size=2097152 flags=0xb80) for ucp_am_bufs failed: Operation not permitted, please check shared memory limits by 'ipcs -l'
[1631549890.355530] [comp0807:248415:0]            sys.c:618  UCX  ERROR shmget(size=2097152 flags=0xb80) for ucp_am_bufs failed: Operation not permitted, please check shared memory limits by 'ipcs -l'
[1631549890.356336] [comp0807:248418:0]            sys.c:618  UCX  ERROR shmget(size=2097152 flags=0xb80) for ucp_am_bufs failed: Operation not permitted, please check shared memory limits by 'ipcs -l'
[1631549890.356356] [comp0807:248416:0]            sys.c:618  UCX  ERROR shmget(size=2097152 flags=0xb80) for ucp_am_bufs failed: Operation not permitted, please check shared memory limits by 'ipcs -l'


           ************************************************************
           *        Program running with 4 parallel MPI-processes     *
           *              working on a common directory               *
           ************************************************************
-------------------------------------------------------------------------------
                                 ORCA SCF
-------------------------------------------------------------------------------

------------
SCF SETTINGS
------------
Hamiltonian:
 Ab initio Hamiltonian  Method          .... Hartree-Fock(GTOs)


General Settings:
 Integral files         IntName         .... manual_356_sp
 Hartree-Fock type      HFTyp           .... RHF
 Total Charge           Charge          ....   -1
 Multiplicity           Mult            ....    1
 Number of Electrons    NEL             ....   68
 Basis Dimension        Dim             ....  222
 Nuclear Repulsion      ENuc            ....    295.0363025906 Eh

Convergence Acceleration:
 DIIS                   CNVDIIS         .... on
   Start iteration      DIISMaxIt       ....    12
   Startup error        DIISStart       ....  0.200000
   # of expansion vecs  DIISMaxEq       ....     5
   Bias factor          DIISBfac        ....   1.050
   Max. coefficient     DIISMaxC        ....  10.000
 Newton-Raphson         CNVNR           .... off
 SOSCF                  CNVSOSCF        .... on
   Start iteration      SOSCFMaxIt      ....   150
   Startup grad/error   SOSCFStart      ....  0.003300
 Level Shifting         CNVShift        .... on
   Level shift para.    LevelShift      ....    0.2500
   Turn off err/grad.   ShiftErr        ....    0.0010
 Zerner damping         CNVZerner       .... off
 Static damping         CNVDamp         .... on
   Fraction old density DampFac         ....    0.7000
   Max. Damping (<1)    DampMax         ....    0.9800
   Min. Damping (>=0)   DampMin         ....    0.0000
   Turn off err/grad.   DampErr         ....    0.1000
 Fernandez-Rico         CNVRico         .... off

SCF Procedure:
 Maximum # iterations   MaxIter         ....   250
 SCF integral mode      SCFMode         .... Direct
   Integral package                     .... LIBINT
 Reset frequency        DirectResetFreq ....    20
 Integral Threshold     Thresh          ....  1.000e-10 Eh
 Primitive CutOff       TCut            ....  1.000e-11 Eh

Convergence Tolerance:
 Convergence Check Mode ConvCheckMode   .... Total+1el-Energy
 Convergence forced     ConvForced      .... 1
 Energy Change          TolE            ....  1.000e-06 Eh
 1-El. energy change                    ....  1.000e-03 Eh
 Orbital Gradient       TolG            ....  5.000e-05
 Orbital Rotation angle TolX            ....  5.000e-05
 DIIS Error             TolErr          ....  1.000e-06


Diagonalization of the overlap matrix:
Smallest eigenvalue                        ... 2.468e-04
Time for diagonalization                   ...    0.011 sec
Threshold for overlap eigenvalues          ... 1.000e-08
Number of eigenvalues below threshold      ... 0
Time for construction of square roots      ...    0.006 sec
Total time needed                          ...    0.017 sec

-------------------
DFT GRID GENERATION
-------------------

General Integration Accuracy     IntAcc      ...  4.340
Radial Grid Type                 RadialGrid  ... Gauss-Chebyshev
Angular Grid (max. acc.)         AngularGrid ... Lebedev-110
Angular grid pruning method      GridPruning ... 3 (G Style)
Weight generation scheme         WeightScheme... Becke
Basis function cutoff            BFCut       ...    1.0000e-10
Integration weight cutoff        WCut        ...    1.0000e-14
Grids for H and He will be reduced by one unit

# of grid points (after initial pruning)     ...  15652 (   0.0 sec)
# of grid points (after weights+screening)   ...  14816 (   0.0 sec)
nearest neighbour list constructed           ...    0.0 sec
Grid point re-assignment to atoms done       ...    0.0 sec
Grid point division into batches done        ...    0.0 sec
Reduced shell lists constructed in    0.1 sec

Total number of grid points                  ...    14816
Total number of batches                      ...      237
Average number of points per batch           ...       62
Average number of grid points per atom       ...     1235
Average number of shells per batch           ...    63.70 (70.78%)
Average number of basis functions per batch  ...   161.15 (72.59%)
Average number of large shells per batch     ...    52.38 (82.22%)
Average number of large basis fcns per batch ...   131.43 (81.56%)
Maximum spatial batch extension              ...  19.76, 19.07, 22.49 au
Average spatial batch extension              ...   0.83,  0.81,  0.89 au

Time for grid setup =    0.091 sec

------------------------------
INITIAL GUESS: MODEL POTENTIAL
------------------------------
Loading Hartree-Fock densities                     ... done
  calling /usr/local/orca_4_2_1_linux_x86-64/orca manual_356_sp_atom53.inp > manual_356_sp_atom53.out in order to generate an atomic fitting density for atom 3 (I  with ECP) on-the-fly... 
    atom 3 (I ), assumed electronic state with S=2: 1s2 2s2 2p6 3s2 3p6 4s2 3d10 4p6 5s2 4d10 5p5           ... done
Calculating cut-offs                               ... done
Setting up the integral package                    ... done
Initializing the effective Hamiltonian             ... done
Starting the Coulomb interaction                   ... done (   0.0 sec)
Reading the grid                                   ... done
Mapping shells                                     ... done
Starting the XC term evaluation                    ... done (   0.0 sec)
Transforming the Hamiltonian                       ... done (   0.0 sec)
Diagonalizing the Hamiltonian                      ... done (   0.0 sec)
Back transforming the eigenvectors                 ... done (   0.0 sec)
Now organizing SCF variables                       ... done
                      ------------------
                      INITIAL GUESS DONE (   1.5 sec)
                      ------------------

--------------------
CPCM SOLVATION MODEL
--------------------
CPCM parameters:
  Epsilon                                         ...      20.7000
  Refrac                                          ...       1.3590
  Rsolv                                           ...       1.3000
  Surface type                                    ... GAUSSIAN VDW
  Epsilon function type                           ...         CPCM
Radii:
 Radius for C  used is    3.8550 Bohr (=   2.0400 Ang.)
 Radius for I  used is    4.4900 Bohr (=   2.3760 Ang.)
 Radius for H  used is    2.4944 Bohr (=   1.3200 Ang.)
 Radius for Cl used is    3.9684 Bohr (=   2.1000 Ang.)
Calculating surface                               ...        done! (  0.0s)
GEPOL surface points                              ...          725
GEPOL Volume                                      ...    1059.9474
GEPOL Surface-area                                ...     609.5066
Calculating surface distance matrix               ...        done! (  0.0s)
Performing Cholesky decomposition & store         ...        done! (  0.0s)
Overall time for CPCM initialization              ...                 0.0s
--------------
SCF ITERATIONS
--------------
ITER       Energy         Delta-E        Max-DP      RMS-DP      [F,P]     Damp
               ***  Starting incremental Fock matrix formation  ***
  0   -649.9409199774   0.000000000000 3.82219819  0.04024081  7.1445297 0.7000
  1   -780.9978721281-131.05695215073711.42587198  0.08626172  2.7672022 0.7000
  2   -804.2885161763 -23.290644048174 2.04623583  0.02720554  0.9365712 0.7000
  3   -824.1584956498 -19.869979473446 2.79631479  0.02155091  0.7029955 0.7000
  4   -838.4685833926 -14.310087742867 2.66463804  0.02125669  0.5148312 0.7000
  5   -848.7724688784 -10.303885485738 2.11494397  0.01741535  0.3697942 0.7000
  6   -856.1549052328  -7.382436354454 1.57082640  0.01318164  0.2624564 0.7000
                               ***Turning on DIIS***
  7   -861.4139638423  -5.259058609437 1.13713110  0.00968122  0.1850380 0.7000
  8   -865.6205252440  -4.206561401787 0.82213940  0.00717816  0.1408444 0.7000
  9   -868.2957481257  -2.675222881618 1.95182221  0.01737533  0.0996051 0.0000
 10   -874.0303356482  -5.734587522587 0.03435430  0.00074572  0.0135711 0.0000
 11   -874.0105876662   0.019747982015 0.03043238  0.00054683  0.0088383 0.0000
 12   -874.0132506412  -0.002662974928 0.00819614  0.00024237  0.0052498 0.0000
 13   -874.0293464280  -0.016095786877 0.00559896  0.00013526  0.0027927 0.0000
 14   -874.0292039193   0.000142508712 0.00332319  0.00007914  0.0015513 0.0000
                      *** Initiating the SOSCF procedure ***
                           *** Shutting down DIIS ***
                      *** Re-Reading the Fockian *** 
                      *** Removing any level shift *** 
ITER      Energy       Delta-E        Grad      Rot      Max-DP    RMS-DP
 15   -874.02828626   0.0009176627  0.002066  0.002066  0.002748  0.000067
               *** Restarting incremental Fock matrix formation ***
 16   -874.02819490   0.0000913611  0.000253  0.000607  0.000313  0.000010
 17   -874.02819576  -0.0000008626  0.000156  0.000890  0.000398  0.000013
 18   -874.02819617  -0.0000004105  0.000016  0.000017  0.000060  0.000001
                 **** Energy Check signals convergence ****
              ***Rediagonalizing the Fockian in SOSCF/NRSCF***

               *****************************************************
               *                     SUCCESS                       *
               *           SCF CONVERGED AFTER  19 CYCLES          *
               *****************************************************


----------------
TOTAL SCF ENERGY
----------------

Total Energy       :         -874.02819618 Eh          -23783.51635 eV

Components:
Nuclear Repulsion  :          295.03630259 Eh            8028.34595 eV
Electronic Energy  :        -1169.06449877 Eh          -31811.86230 eV
One Electron Energy:        -1911.12440721 Eh          -52004.33897 eV
Two Electron Energy:          742.05990844 Eh           20192.47667 eV
CPCM Dielectric    :           -0.08632185 Eh              -2.34894 eV

Virial components:
Potential Energy   :        -1564.92122702 Eh          -42583.67150 eV
Kinetic Energy     :          690.89303083 Eh           18800.15515 eV
Virial Ratio       :            2.26507022

CPCM Solvation Model Properties:
Surface-charge          :            0.95962033
Charge-correction       :           -0.00524123 Eh              -0.14262 eV
Free-energy (cav+disp)  :            0.00394490 Eh               0.10735 eV
Corrected G(solv)       :         -874.02949251 Eh          -23783.55162 eV

---------------
SCF CONVERGENCE
---------------

  Last Energy change         ...   -1.4643e-08  Tolerance :   1.0000e-06
  Last MAX-Density change    ...    1.5421e-05  Tolerance :   1.0000e-05
  Last RMS-Density change    ...    5.0340e-07  Tolerance :   1.0000e-06
  Last Orbital Gradient      ...    1.2132e-05  Tolerance :   5.0000e-05
  Last Orbital Rotation      ...    2.3242e-05  Tolerance :   5.0000e-05

             **** THE GBW FILE WAS UPDATED (manual_356_sp.gbw) ****
             **** DENSITY FILE WAS UPDATED (manual_356_sp.scfp) ****
             **** ENERGY FILE WAS UPDATED (manual_356_sp.en.tmp) ****
             **** THE GBW FILE WAS UPDATED (manual_356_sp.gbw) ****
             **** DENSITY FILE WAS UPDATED (manual_356_sp.scfp) ****
----------------
ORBITAL ENERGIES
----------------

  NO   OCC          E(Eh)            E(eV) 
   0   2.0000    -104.719672     -2849.5671 
   1   2.0000     -11.321251      -308.0669 
   2   2.0000     -11.229106      -305.5595 
   3   2.0000     -11.209428      -305.0240 
   4   2.0000     -10.448309      -284.3129 
   5   2.0000      -7.914815      -215.3731 
   6   2.0000      -7.914572      -215.3665 
   7   2.0000      -7.914557      -215.3660 
   8   2.0000      -7.669930      -208.7094 
   9   2.0000      -5.519753      -150.2001 
  10   2.0000      -5.517357      -150.1349 
  11   2.0000      -5.517331      -150.1342 
  12   2.0000      -2.214143       -60.2499 
  13   2.0000      -2.213103       -60.2216 
  14   2.0000      -2.213072       -60.2207 
  15   2.0000      -2.210380       -60.1475 
  16   2.0000      -2.210377       -60.1474 
  17   2.0000      -1.075569       -29.2677 
  18   2.0000      -0.970842       -26.4180 
  19   2.0000      -0.924703       -25.1624 
  20   2.0000      -0.827015       -22.5042 
  21   2.0000      -0.795623       -21.6500 
  22   2.0000      -0.643253       -17.5038 
  23   2.0000      -0.611718       -16.6457 
  24   2.0000      -0.587397       -15.9839 
  25   2.0000      -0.508619       -13.8402 
  26   2.0000      -0.496262       -13.5040 
  27   2.0000      -0.494682       -13.4610 
  28   2.0000      -0.395833       -10.7712 
  29   2.0000      -0.377877       -10.2826 
  30   2.0000      -0.376105       -10.2343 
  31   2.0000      -0.330756        -9.0003 
  32   2.0000      -0.330409        -8.9909 
  33   2.0000      -0.324314        -8.8250 
  34   0.0000       0.093365         2.5406 
  35   0.0000       0.160354         4.3634 
  36   0.0000       0.192136         5.2283 
  37   0.0000       0.195372         5.3163 
  38   0.0000       0.219780         5.9805 
  39   0.0000       0.228662         6.2222 
  40   0.0000       0.240710         6.5501 
  41   0.0000       0.255233         6.9452 
  42   0.0000       0.262603         7.1458 
  43   0.0000       0.278832         7.5874 
  44   0.0000       0.304012         8.2726 
  45   0.0000       0.307110         8.3569 
  46   0.0000       0.312684         8.5086 
  47   0.0000       0.341577         9.2948 
  48   0.0000       0.349043         9.4980 
  49   0.0000       0.374033        10.1780 
  50   0.0000       0.398764        10.8509 
  51   0.0000       0.404653        11.0112 
  52   0.0000       0.412269        11.2184 
  53   0.0000       0.425430        11.5765 
  54   0.0000       0.443274        12.0621 
  55   0.0000       0.452353        12.3091 
  56   0.0000       0.476907        12.9773 
  57   0.0000       0.529144        14.3987 
  58   0.0000       0.535701        14.5772 
  59   0.0000       0.541483        14.7345 
  60   0.0000       0.552754        15.0412 
  61   0.0000       0.586681        15.9644 
  62   0.0000       0.590153        16.0589 
  63   0.0000       0.600736        16.3468 
  64   0.0000       0.610343        16.6083 
  65   0.0000       0.617313        16.7980 
  66   0.0000       0.624061        16.9816 
  67   0.0000       0.645236        17.5578 
  68   0.0000       0.671652        18.2766 
  69   0.0000       0.687802        18.7160 
  70   0.0000       0.696027        18.9398 
  71   0.0000       0.721575        19.6350 
  72   0.0000       0.728066        19.8117 
  73   0.0000       0.737136        20.0585 
  74   0.0000       0.748355        20.3638 
  75   0.0000       0.776916        21.1410 
  76   0.0000       0.784049        21.3351 
  77   0.0000       0.794304        21.6141 
  78   0.0000       0.882796        24.0221 
  79   0.0000       0.911408        24.8007 
  80   0.0000       0.923314        25.1247 
  81   0.0000       0.972770        26.4704 
  82   0.0000       1.031543        28.0697 
  83   0.0000       1.049204        28.5503 
  84   0.0000       1.088804        29.6279 
  85   0.0000       1.127245        30.6739 
  86   0.0000       1.133140        30.8343 
  87   0.0000       1.151281        31.3279 
  88   0.0000       1.178252        32.0619 
  89   0.0000       1.181564        32.1520 
  90   0.0000       1.184705        32.2375 
  91   0.0000       1.196675        32.5632 
  92   0.0000       1.217835        33.1390 
  93   0.0000       1.231824        33.5196 
  94   0.0000       1.259169        34.2637 
  95   0.0000       1.308373        35.6026 
  96   0.0000       1.328702        36.1558 
  97   0.0000       1.329879        36.1879 
  98   0.0000       1.357601        36.9422 
  99   0.0000       1.382542        37.6209 
 100   0.0000       1.397627        38.0314 
 101   0.0000       1.434292        39.0291 
 102   0.0000       1.448287        39.4099 
 103   0.0000       1.493902        40.6511 
 104   0.0000       1.529932        41.6316 
 105   0.0000       1.628209        44.3058 
 106   0.0000       1.709883        46.5283 
 107   0.0000       1.711549        46.5736 
 108   0.0000       1.716093        46.6973 
 109   0.0000       1.756465        47.7958 
 110   0.0000       1.793925        48.8152 
 111   0.0000       1.796389        48.8822 
 112   0.0000       1.799475        48.9662 
 113   0.0000       1.816841        49.4388 
 114   0.0000       1.825897        49.6852 
 115   0.0000       1.849201        50.3193 
 116   0.0000       1.866796        50.7981 
 117   0.0000       1.901085        51.7311 
 118   0.0000       1.910981        52.0004 
 119   0.0000       1.963005        53.4161 
 120   0.0000       2.013484        54.7897 
 121   0.0000       2.056462        55.9592 
 122   0.0000       2.078371        56.5553 
 123   0.0000       2.100024        57.1446 
 124   0.0000       2.121246        57.7221 
 125   0.0000       2.143655        58.3318 
 126   0.0000       2.191947        59.6459 
 127   0.0000       2.203840        59.9695 
 128   0.0000       2.228032        60.6278 
 129   0.0000       2.261118        61.5282 
 130   0.0000       2.293745        62.4160 
 131   0.0000       2.304046        62.6963 
 132   0.0000       2.334851        63.5345 
 133   0.0000       2.360232        64.2252 
 134   0.0000       2.373305        64.5809 
 135   0.0000       2.410213        65.5852 
 136   0.0000       2.430326        66.1325 
 137   0.0000       2.446327        66.5679 
 138   0.0000       2.485434        67.6321 
 139   0.0000       2.498551        67.9890 
 140   0.0000       2.498791        67.9955 
 141   0.0000       2.517245        68.4977 
 142   0.0000       2.528386        68.8009 
 143   0.0000       2.580983        70.2321 
 144   0.0000       2.600820        70.7719 
 145   0.0000       2.625566        71.4453 
 146   0.0000       2.643689        71.9384 
 147   0.0000       2.655707        72.2655 
 148   0.0000       2.658733        72.3478 
 149   0.0000       2.677283        72.8526 
 150   0.0000       2.693204        73.2858 
 151   0.0000       2.738744        74.5250 
 152   0.0000       2.790391        75.9304 
 153   0.0000       2.837660        77.2167 
 154   0.0000       2.863033        77.9071 
 155   0.0000       2.903244        79.0013 
 156   0.0000       2.909985        79.1847 
 157   0.0000       2.918037        79.4038 
 158   0.0000       2.944572        80.1259 
 159   0.0000       2.954046        80.3837 
 160   0.0000       2.974864        80.9502 
 161   0.0000       3.027934        82.3943 
 162   0.0000       3.064156        83.3799 
 163   0.0000       3.109467        84.6129 
 164   0.0000       3.141138        85.4747 
 165   0.0000       3.208689        87.3129 
 166   0.0000       3.248824        88.4050 
 167   0.0000       3.314953        90.2045 
 168   0.0000       3.333479        90.7086 
 169   0.0000       3.393914        92.3531 
 170   0.0000       3.425162        93.2034 
 171   0.0000       3.456454        94.0549 
 172   0.0000       3.464294        94.2682 
 173   0.0000       3.481040        94.7239 
 174   0.0000       3.527517        95.9886 
 175   0.0000       3.544505        96.4509 
 176   0.0000       3.545577        96.4801 
 177   0.0000       3.560357        96.8822 
 178   0.0000       3.574319        97.2622 
 179   0.0000       3.596092        97.8546 
 180   0.0000       3.615190        98.3743 
 181   0.0000       3.628988        98.7498 
 182   0.0000       3.632629        98.8488 
 183   0.0000       3.678702       100.1026 
 184   0.0000       3.690008       100.4102 
 185   0.0000       3.717908       101.1694 
 186   0.0000       3.766917       102.5030 
 187   0.0000       3.784500       102.9815 
 188   0.0000       3.839997       104.4916 
 189   0.0000       3.875060       105.4458 
 190   0.0000       3.898211       106.0757 
 191   0.0000       3.963095       107.8413 
 192   0.0000       4.098031       111.5131 
 193   0.0000       4.143813       112.7589 
 194   0.0000       4.220843       114.8550 
 195   0.0000       4.250877       115.6722 
 196   0.0000       4.345447       118.2456 
 197   0.0000       4.374935       119.0480 
 198   0.0000       4.419341       120.2564 
 199   0.0000       4.487042       122.0986 
 200   0.0000       4.602486       125.2400 
 201   0.0000       4.655996       126.6961 
 202   0.0000       4.751288       129.2891 
 203   0.0000       4.821490       131.1994 
 204   0.0000       4.892884       133.1421 
 205   0.0000       4.913526       133.7038 
 206   0.0000       4.929635       134.1422 
 207   0.0000       5.052434       137.4837 
 208   0.0000       5.170210       140.6886 
 209   0.0000       5.218420       142.0004 
 210   0.0000      11.586711       315.2904 
 211   0.0000      11.594574       315.5044 
 212   0.0000      11.688653       318.0644 
 213   0.0000      23.319530       634.5567 
 214   0.0000      23.400197       636.7517 
 215   0.0000      23.582094       641.7014 
 216   0.0000      25.578974       696.0393 
 217   0.0000      35.270967       959.7718 
 218   0.0000      35.280923       960.0427 
 219   0.0000      35.428371       964.0550 
 220   0.0000      43.572922      1185.6795 
 221   0.0000     118.754299      3231.4688 

                    ********************************
                    * MULLIKEN POPULATION ANALYSIS *
                    ********************************

-----------------------
MULLIKEN ATOMIC CHARGES
-----------------------
   0 C :   -0.392882
   1 C :   -0.077079
   2 C :    0.048382
   3 I :   -0.744446
   4 H :    0.124847
   5 H :    0.118766
   6 H :    0.114461
   7 H :    0.137838
   8 H :    0.122624
   9 H :    0.202580
  10 H :    0.206973
  11 Cl:   -0.862064
Sum of atomic charges:   -1.0000000

--------------------------------
MULLIKEN REDUCED ORBITAL CHARGES
--------------------------------
  0 C s       :     3.253320  s :     3.253320
      pz      :     0.994498  p :     3.056371
      px      :     0.998428
      py      :     1.063445
      dz2     :     0.026173  d :     0.078426
      dxz     :     0.017099
      dyz     :     0.004142
      dx2y2   :     0.006116
      dxy     :     0.024896
      f0      :     0.000607  f :     0.004764
      f+1     :     0.001644
      f-1     :     0.000215
      f+2     :     0.000513
      f-2     :     0.000552
      f+3     :     0.001034
      f-3     :     0.000199
  1 C s       :     3.084314  s :     3.084314
      pz      :     1.010992  p :     2.874074
      px      :     0.943092
      py      :     0.919990
      dz2     :     0.031615  d :     0.112117
      dxz     :     0.022351
      dyz     :     0.009340
      dx2y2   :     0.012475
      dxy     :     0.036335
      f0      :     0.000811  f :     0.006574
      f+1     :     0.001700
      f-1     :     0.000508
      f+2     :     0.000498
      f-2     :     0.000917
      f+3     :     0.001439
      f-3     :     0.000701
  2 C s       :     3.244152  s :     3.244152
      pz      :     0.815001  p :     2.589399
      px      :     0.783750
      py      :     0.990648
      dz2     :     0.008808  d :     0.112337
      dxz     :     0.035152
      dyz     :     0.024007
      dx2y2   :     0.024470
      dxy     :     0.019901
      f0      :     0.000547  f :     0.005730
      f+1     :     0.000716
      f-1     :     0.000453
      f+2     :     0.001010
      f-2     :     0.000987
      f+3     :     0.000907
      f-3     :     0.001110
  3 I s       :     3.973401  s :     3.973401
      pz      :     3.895659  p :    11.751009
      px      :     3.868535
      py      :     3.986815
      dz2     :     2.002482  d :    10.018020
      dxz     :     2.008390
      dyz     :     2.001499
      dx2y2   :     2.002942
      dxy     :     2.002708
      f0      :     0.000263  f :     0.002015
      f+1     :     0.000460
      f-1     :     0.000074
      f+2     :     0.000503
      f-2     :     0.000359
      f+3     :     0.000147
      f-3     :     0.000209
  4 H s       :     0.853674  s :     0.853674
      pz      :     0.003503  p :     0.021480
      px      :     0.007720
      py      :     0.010256
  5 H s       :     0.859748  s :     0.859748
      pz      :     0.012496  p :     0.021485
      px      :     0.005413
      py      :     0.003576
  6 H s       :     0.863988  s :     0.863988
      pz      :     0.003804  p :     0.021551
      px      :     0.007107
      py      :     0.010640
  7 H s       :     0.839741  s :     0.839741
      pz      :     0.003849  p :     0.022421
      px      :     0.007150
      py      :     0.011422
  8 H s       :     0.854491  s :     0.854491
      pz      :     0.013393  p :     0.022885
      px      :     0.005790
      py      :     0.003702
  9 H s       :     0.773035  s :     0.773035
      pz      :     0.006855  p :     0.024385
      px      :     0.003583
      py      :     0.013947
 10 H s       :     0.769224  s :     0.769224
      pz      :     0.010856  p :     0.023803
      px      :     0.009537
      py      :     0.003410
 11 Cls       :     5.967024  s :     5.967024
      pz      :     3.958856  p :    11.888929
      px      :     3.958196
      py      :     3.971877
      dz2     :     0.000831  d :     0.005819
      dxz     :     0.001704
      dyz     :     0.001252
      dx2y2   :     0.000868
      dxy     :     0.001165
      f0      :     0.000029  f :     0.000292
      f+1     :     0.000056
      f-1     :     0.000030
      f+2     :     0.000038
      f-2     :     0.000075
      f+3     :     0.000017
      f-3     :     0.000047


                     *******************************
                     * LOEWDIN POPULATION ANALYSIS *
                     *******************************

----------------------
LOEWDIN ATOMIC CHARGES
----------------------
   0 C :   -0.293235
   1 C :   -0.326278
   2 C :   -0.165275
   3 I :   -0.458401
   4 H :    0.116436
   5 H :    0.114169
   6 H :    0.114922
   7 H :    0.138781
   8 H :    0.141804
   9 H :    0.130101
  10 H :    0.131210
  11 Cl:   -0.644234

-------------------------------
LOEWDIN REDUCED ORBITAL CHARGES
-------------------------------
  0 C s       :     2.829027  s :     2.829027
      pz      :     1.050339  p :     3.155722
      px      :     1.045340
      py      :     1.060043
      dz2     :     0.093096  d :     0.282843
      dxz     :     0.060779
      dyz     :     0.019387
      dx2y2   :     0.020791
      dxy     :     0.088790
      f0      :     0.003161  f :     0.025643
      f+1     :     0.005964
      f-1     :     0.003158
      f+2     :     0.004208
      f-2     :     0.003677
      f+3     :     0.004020
      f-3     :     0.001455
  1 C s       :     2.780168  s :     2.780168
      pz      :     1.043820  p :     3.090988
      px      :     1.030100
      py      :     1.017068
      dz2     :     0.104206  d :     0.416141
      dxz     :     0.086165
      dyz     :     0.042602
      dx2y2   :     0.059337
      dxy     :     0.123832
      f0      :     0.005001  f :     0.038980
      f+1     :     0.006379
      f-1     :     0.004900
      f+2     :     0.004398
      f-2     :     0.006165
      f+3     :     0.007170
      f-3     :     0.004968
  2 C s       :     2.950493  s :     2.950493
      pz      :     0.889084  p :     2.833867
      px      :     0.884542
      py      :     1.060242
      dz2     :     0.027057  d :     0.355706
      dxz     :     0.104335
      dyz     :     0.076794
      dx2y2   :     0.083778
      dxy     :     0.063742
      f0      :     0.002677  f :     0.025209
      f+1     :     0.002783
      f-1     :     0.001705
      f+2     :     0.003248
      f-2     :     0.005430
      f+3     :     0.003227
      f-3     :     0.006139
  3 I s       :     3.841791  s :     3.841791
      pz      :     3.833426  p :    11.576166
      px      :     3.787309
      py      :     3.955431
      dz2     :     2.005837  d :    10.037706
      dxz     :     2.016263
      dyz     :     2.004304
      dx2y2   :     2.004484
      dxy     :     2.006818
      f0      :     0.000353  f :     0.002738
      f+1     :     0.000641
      f-1     :     0.000122
      f+2     :     0.000602
      f-2     :     0.000556
      f+3     :     0.000158
      f-3     :     0.000306
  4 H s       :     0.824484  s :     0.824484
      pz      :     0.011590  p :     0.059080
      px      :     0.020056
      py      :     0.027434
  5 H s       :     0.826375  s :     0.826375
      pz      :     0.030707  p :     0.059456
      px      :     0.016596
      py      :     0.012153
  6 H s       :     0.825541  s :     0.825541
      pz      :     0.012580  p :     0.059537
      px      :     0.018924
      py      :     0.028033
  7 H s       :     0.802891  s :     0.802891
      pz      :     0.012597  p :     0.058329
      px      :     0.019053
      py      :     0.026678
  8 H s       :     0.798728  s :     0.798728
      pz      :     0.031602  p :     0.059469
      px      :     0.016523
      py      :     0.011344
  9 H s       :     0.801625  s :     0.801625
      pz      :     0.020101  p :     0.068274
      px      :     0.010911
      py      :     0.037262
 10 H s       :     0.801938  s :     0.801938
      pz      :     0.029911  p :     0.066852
      px      :     0.025700
      py      :     0.011241
 11 Cls       :     5.878585  s :     5.878585
      pz      :     3.910859  p :    11.754555
      px      :     3.917568
      py      :     3.926127
      dz2     :     0.001352  d :     0.010501
      dxz     :     0.003665
      dyz     :     0.001905
      dx2y2   :     0.001536
      dxy     :     0.002043
      f0      :     0.000060  f :     0.000594
      f+1     :     0.000115
      f-1     :     0.000050
      f+2     :     0.000065
      f-2     :     0.000184
      f+3     :     0.000028
      f-3     :     0.000093


                      *****************************
                      * MAYER POPULATION ANALYSIS *
                      *****************************

  NA   - Mulliken gross atomic population
  ZA   - Total nuclear charge
  QA   - Mulliken gross atomic charge
  VA   - Mayer's total valence
  BVA  - Mayer's bonded valence
  FA   - Mayer's free valence

  ATOM       NA         ZA         QA         VA         BVA        FA
  0 C      6.3929     6.0000    -0.3929     3.9504     3.9504    -0.0000
  1 C      6.0771     6.0000    -0.0771     3.7926     3.7926     0.0000
  2 C      5.9516     6.0000     0.0484     3.5012     3.5012    -0.0000
  3 I     25.7444    25.0000    -0.7444     0.4655     0.4655    -0.0000
  4 H      0.8752     1.0000     0.1248     0.9674     0.9674     0.0000
  5 H      0.8812     1.0000     0.1188     0.9699     0.9699     0.0000
  6 H      0.8855     1.0000     0.1145     0.9840     0.9840    -0.0000
  7 H      0.8622     1.0000     0.1378     0.9544     0.9544    -0.0000
  8 H      0.8774     1.0000     0.1226     0.9940     0.9940    -0.0000
  9 H      0.7974     1.0000     0.2026     0.9627     0.9627    -0.0000
 10 H      0.7930     1.0000     0.2070     0.9577     0.9577    -0.0000
 11 Cl    17.8621    17.0000    -0.8621     0.2412     0.2412     0.0000

  Mayer bond orders larger than 0.100000
B(  0-C ,  1-C ) :   0.9814 B(  0-C ,  4-H ) :   0.9867 B(  0-C ,  5-H ) :   0.9805 
B(  0-C ,  6-H ) :   0.9825 B(  1-C ,  2-C ) :   0.9680 B(  1-C ,  7-H ) :   0.9604 
B(  1-C ,  8-H ) :   0.9489 B(  2-C ,  3-I ) :   0.4499 B(  2-C ,  9-H ) :   0.9508 
B(  2-C , 10-H ) :   0.9494 B(  2-C , 11-Cl) :   0.1607 


------------------
HIRSHFELD ANALYSIS
------------------

Total integrated alpha density =     33.999467611
Total integrated beta density  =     33.999467611

  ATOM     CHARGE      SPIN    
   0 C   -0.053981    0.000000
   1 C   -0.017879    0.000000
   2 C    0.156294    0.000000
   3 I   -0.600283    0.000000
   4 H    0.025741    0.000000
   5 H    0.013205    0.000000
   6 H    0.014120    0.000000
   7 H    0.029906    0.000000
   8 H    0.028297    0.000000
   9 H    0.054877    0.000000
  10 H    0.060483    0.000000
  11 Cl  -0.709714    0.000000

  TOTAL  -0.998935    0.000000

-------
TIMINGS
-------

Total SCF time: 0 days 0 hours 0 min 47 sec 

Total time                  ....      47.093 sec
Sum of individual times     ....      46.854 sec  ( 99.5%)

Fock matrix formation       ....      45.157 sec  ( 95.9%)
Diagonalization             ....       0.087 sec  (  0.2%)
Density matrix formation    ....       0.009 sec  (  0.0%)
Population analysis         ....       0.043 sec  (  0.1%)
Initial guess               ....       1.421 sec  (  3.0%)
Orbital Transformation      ....       0.000 sec  (  0.0%)
Orbital Orthonormalization  ....       0.000 sec  (  0.0%)
DIIS solution               ....       0.033 sec  (  0.1%)
SOSCF solution              ....       0.014 sec  (  0.0%)
[1631549938.324939] [comp0807:248447:0]            sys.c:618  UCX  ERROR shmget(size=2097152 flags=0xfb0) for mm_recv_desc failed: Operation not permitted, please check shared memory limits by 'ipcs -l'
[1631549938.331089] [comp0807:248445:0]            sys.c:618  UCX  ERROR shmget(size=2097152 flags=0xfb0) for mm_recv_desc failed: Operation not permitted, please check shared memory limits by 'ipcs -l'
[1631549938.356875] [comp0807:248446:0]            sys.c:618  UCX  ERROR shmget(size=2097152 flags=0xfb0) for mm_recv_desc failed: Operation not permitted, please check shared memory limits by 'ipcs -l'
[1631549938.357806] [comp0807:248448:0]            sys.c:618  UCX  ERROR shmget(size=2097152 flags=0xfb0) for mm_recv_desc failed: Operation not permitted, please check shared memory limits by 'ipcs -l'
[1631549938.365924] [comp0807:248445:0]            sys.c:618  UCX  ERROR shmget(size=2097152 flags=0xb80) for ucp_am_bufs failed: Operation not permitted, please check shared memory limits by 'ipcs -l'
[1631549938.366757] [comp0807:248446:0]            sys.c:618  UCX  ERROR shmget(size=2097152 flags=0xb80) for ucp_am_bufs failed: Operation not permitted, please check shared memory limits by 'ipcs -l'


           ************************************************************
           *        Program running with 4 parallel MPI-processes     *
           *              working on a common directory               *
           ************************************************************
[1631549938.376566] [comp0807:248447:0]            sys.c:618  UCX  ERROR shmget(size=2097152 flags=0xb80) for ucp_am_bufs failed: Operation not permitted, please check shared memory limits by 'ipcs -l'


------------------------------------------------------------------------------- 
                              ORCA-MATRIX DRIVEN CI                            
------------------------------------------------------------------------------- 

--------------------------------
AUTOMATIC CHOICE OF INCORE LEVEL
--------------------------------

Memory available                           ...   2000.00 MB
Memory needed for S+T                      ...    204.67 MB
Memory needed for J+K                      ...    410.06 MB
Memory needed for DIIS                     ...   2865.34 MB
Memory needed for 3-ext                    ...   1115.29 MB
Memory needed for 4-ext                    ...   4790.66 MB
Memory needed for triples                  ...    253.47 MB
 -> Final InCoreLevel    ... 2
 -> check shows that triples correction can be computed


Wavefunction type
-----------------
Correlation treatment                      ...      CCSD     
Single excitations                         ... ON
Orbital optimization                       ... OFF
Calculation of Z vector                    ... OFF
Calculation of Brueckner orbitals          ... OFF
Perturbative triple excitations            ... ON
Calculation of F12 correction              ... OFF
Frozen core treatment                      ... chemical core (24 el)
Reference Wavefunction                     ... RHF
  Internal Orbitals:    12 ...   33 ( 22 MO's/ 44 electrons)
  Virtual  Orbitals:    34 ...  221 (188 MO's              )
Number of AO's                             ...    222
Number of electrons                        ...     68
Number of correlated electrons             ...     44

Algorithmic settings
--------------------
Integral transformation                    ... AO direct full transformation
K(C) Formation                             ... FULL-MO TRAFO
Maximum number of iterations               ...        50
Convergence tolerance (max. residuum)      ... 2.500e-05
Level shift for amplitude update           ... 2.000e-01
Maximum number of DIIS vectors             ...         7
DIIS turned on at iteration                ...         0
Damping before turning on DIIS             ...     0.500
Damping after turning on DIIS              ...     0.000
Pair specific amplitude update             ... OFF
Natural orbital iterations                 ... OFF
Perturbative natural orbital generation    ... OFF
Printlevel                                 ... 2

Memory handling:
----------------
Maximum memory for working arrays          ...   2000 MB
Data storage in matrix containers          ... UNCOMPRESSED
Data type for integral storage             ... DOUBLE
In-Core Storage of quantities:
   Amplitudes+Sigma Vector      ... YES
   J+K operators                ... YES
   DIIS vectors                 ... NO
   3-external integrals         ... NO
   4-external integrals         ... NO


Initializing the integral package          ... done
Warning: reference  - re-canonicalizations have been set to INT 1 VIRT 1

--------------------------
CLOSED-SHELL FOCK OPERATOR
--------------------------

MDCI_FockCPCM: ediel   =  -0.086321853000
MDCI_FockCPCM: <VCPCM> =  -4.612212913873
<ss|ss>:       499500 b        72419 skpd ( 14.5%)    0.033 s ( 0.000 ms/b)
<ss|sp>:      1098900 b       173874 skpd ( 15.8%)    0.110 s ( 0.000 ms/b)
<ss|sd>:       475524 b        76257 skpd ( 16.0%)    0.056 s ( 0.000 ms/b)
<ss|sf>:       252747 b        48916 skpd ( 19.4%)    0.033 s ( 0.000 ms/b)
<ss|pp>:       320679 b        48116 skpd ( 15.0%)    0.049 s ( 0.000 ms/b)
<ss|pd>:       264735 b        41337 skpd ( 15.6%)    0.056 s ( 0.000 ms/b)
<ss|pf>:       141858 b        27252 skpd ( 19.2%)    0.034 s ( 0.000 ms/b)
<ss|dd>:        62937 b         9145 skpd ( 14.5%)    0.032 s ( 0.001 ms/b)
<ss|df>:        62937 b        12396 skpd ( 19.7%)    0.029 s ( 0.001 ms/b)
<ss|ff>:        19980 b         4129 skpd ( 20.7%)    0.010 s ( 0.001 ms/b)
<sp|sp>:       605550 b       100626 skpd ( 16.6%)    0.086 s ( 0.000 ms/b)
<sp|sd>:       523600 b        91078 skpd ( 17.4%)    0.103 s ( 0.000 ms/b)
<sp|sf>:       278300 b        58713 skpd ( 21.1%)    0.066 s ( 0.000 ms/b)
<sp|pp>:       353100 b        53683 skpd ( 15.2%)    0.104 s ( 0.000 ms/b)
<sp|pd>:       291500 b        47230 skpd ( 16.2%)    0.134 s ( 0.001 ms/b)
<sp|pf>:       156200 b        31390 skpd ( 20.1%)    0.082 s ( 0.001 ms/b)
<sp|dd>:        69300 b        10875 skpd ( 15.7%)    0.078 s ( 0.001 ms/b)
<sp|df>:        69300 b        14732 skpd ( 21.3%)    0.071 s ( 0.001 ms/b)
<sp|ff>:        22000 b         4905 skpd ( 22.3%)    0.027 s ( 0.002 ms/b)
<sd|sd>:       113526 b        19950 skpd ( 17.6%)    0.041 s ( 0.000 ms/b)
<sd|sf>:       120428 b        26527 skpd ( 22.0%)    0.051 s ( 0.001 ms/b)
<sd|pp>:       152796 b        25096 skpd ( 16.4%)    0.081 s ( 0.001 ms/b)
<sd|pd>:       126140 b        21408 skpd ( 17.0%)    0.108 s ( 0.001 ms/b)
<sd|pf>:        67592 b        14792 skpd ( 21.9%)    0.066 s ( 0.001 ms/b)
<sd|dd>:        29988 b         4712 skpd ( 15.7%)    0.071 s ( 0.003 ms/b)
<sd|df>:        29988 b         6646 skpd ( 22.2%)    0.067 s ( 0.003 ms/b)
<sd|ff>:         9520 b         2350 skpd ( 24.7%)    0.024 s ( 0.003 ms/b)
<sf|sf>:        32131 b         8444 skpd ( 26.3%)    0.020 s ( 0.001 ms/b)
<sf|pp>:        81213 b        16266 skpd ( 20.0%)    0.064 s ( 0.001 ms/b)
<sf|pd>:        67045 b        14397 skpd ( 21.5%)    0.085 s ( 0.002 ms/b)
<sf|pf>:        35926 b         9484 skpd ( 26.4%)    0.055 s ( 0.002 ms/b)
<sf|dd>:        15939 b         3321 skpd ( 20.8%)    0.060 s ( 0.005 ms/b)
<sf|df>:        15939 b         4387 skpd ( 27.5%)    0.057 s ( 0.005 ms/b)
<sf|ff>:         5060 b         1527 skpd ( 30.2%)    0.021 s ( 0.006 ms/b)
<pp|pp>:        51681 b         6876 skpd ( 13.3%)    0.040 s ( 0.001 ms/b)
<pp|pd>:        85065 b        12289 skpd ( 14.4%)    0.104 s ( 0.001 ms/b)
<pp|pf>:        45582 b         8312 skpd ( 18.2%)    0.067 s ( 0.002 ms/b)
<pp|dd>:        20223 b         2895 skpd ( 14.3%)    0.063 s ( 0.004 ms/b)
<pp|df>:        20223 b         4008 skpd ( 19.8%)    0.063 s ( 0.004 ms/b)
<pp|ff>:         6420 b         1354 skpd ( 21.1%)    0.026 s ( 0.005 ms/b)
<pd|pd>:        35245 b         5413 skpd ( 15.4%)    0.088 s ( 0.003 ms/b)
<pd|pf>:        37630 b         7598 skpd ( 20.2%)    0.100 s ( 0.003 ms/b)
<pd|dd>:        16695 b         2491 skpd ( 14.9%)    0.102 s ( 0.007 ms/b)
<pd|df>:        16695 b         3537 skpd ( 21.2%)    0.105 s ( 0.008 ms/b)
<pd|ff>:         5300 b         1276 skpd ( 24.1%)    0.038 s ( 0.010 ms/b)
<pf|pf>:        10153 b         2534 skpd ( 25.0%)    0.039 s ( 0.005 ms/b)
<pf|dd>:         8946 b         1809 skpd ( 20.2%)    0.074 s ( 0.010 ms/b)
<pf|df>:         8946 b         2451 skpd ( 27.4%)    0.077 s ( 0.012 ms/b)
<pf|ff>:         2840 b          852 skpd ( 30.0%)    0.030 s ( 0.015 ms/b)
<dd|dd>:         2016 b          270 skpd ( 13.4%)    0.034 s ( 0.019 ms/b)
<dd|df>:         3969 b          805 skpd ( 20.3%)    0.055 s ( 0.017 ms/b)
<dd|ff>:         1260 b          307 skpd ( 24.4%)    0.020 s ( 0.021 ms/b)
<df|df>:         2016 b          575 skpd ( 28.5%)    0.036 s ( 0.025 ms/b)
<df|ff>:         1260 b          408 skpd ( 32.4%)    0.025 s ( 0.030 ms/b)
<ff|ff>:          210 b           72 skpd ( 34.3%)    0.007 s ( 0.050 ms/b)
Recanonicalizing the internal orbitals
Recanonicalizing the virtual orbitals
Time needed for Fock operator              ...            3.274 sec
Reference energy                           ...   -874.028194676
<ss|**>: 
------------------------------
PARTIAL COULOMB TRANSFORMATION
------------------------------

Transformation type                        ... one-operator
Dimension of the basis                     ...  222
Number of internal MOs                     ...  210 (12-221)
Pair cutoff                                ... 0.000e+00 Eh
Number of AO pairs included in the trafo   ... 24730
Total Number of distinct AO pairs          ... 24753
Memory devoted for trafo                   ... 2000.0 MB 
Max. Number of MO pairs treated together   ... 10590      
Max. Number of MOs treated per batch       ...   47      
Number Format for Storage                  ... Double (8 Byte)
AO-integral source                         ... DIRECT
Integral package used                      ... LIBINT

Starting integral evaluation:
[1631549943.074500] [comp0807:248448:0]            sys.c:618  UCX  ERROR shmget(size=2097152 flags=0xb80) for ucp_am_bufs failed: Operation not permitted, please check shared memory limits by 'ipcs -l'
     3698298 b        0 skpd     0.629 s (  0.000 ms/b)
<sp|**>:      4072200 b        0 skpd     1.581 s (  0.000 ms/b)
<sd|**>:      1762152 b        0 skpd     1.236 s (  0.001 ms/b)
<sf|**>:       936606 b        0 skpd     0.899 s (  0.001 ms/b)
<pp|**>:      1188342 b        0 skpd     1.261 s (  0.001 ms/b)
<pd|**>:       981030 b        0 skpd     1.824 s (  0.002 ms/b)
<pf|**>:       525684 b        0 skpd     1.408 s (  0.003 ms/b)
<dd|**>:       233226 b        0 skpd     0.841 s (  0.004 ms/b)
<df|**>:       233226 b        0 skpd     1.150 s (  0.005 ms/b)
<ff|**>:        74040 b        0 skpd     0.451 s (  0.006 ms/b)
Closing buffer AOJ ( 0.94 GB; CompressionRatio= 1.00)
Collecting buffer AOJ 
    ... done with AO integral generation
Number of MO pairs included in the trafo   ... 22155
    ... Now sorting integrals
IBATCH = 1 of  1
Closing buffer JAO ( 1.02 GB; CompressionRatio= 1.00)
Collecting buffer JAO 
TOTAL TIME for half transformation         ...    23.682 sec
AO-integral generation                     ...     6.611 sec
Half transformation                        ...     4.675 sec
J-integral sorting                         ...    11.311 sec

-------------------------- SECOND HALF TRANSFORMATION -------------------------
Formation of (pq|rs)                       ... ok (     5.349 sec)
Integral sorting                           ... ok (    14.129 sec)

------------------
CLOSED SHELL GUESS
------------------

Initial guess performed in     0.114 sec
E(0)                                       ...   -874.028194676
E(MP2)                                     ...     -1.206870592
Initial E(tot)                             ...   -875.235065267
<T|T>                                      ...      0.360229192
Number of pairs included                   ... 253
Total number of pairs                      ... 253

------------------------------------------------
                  RHF COUPLED CLUSTER ITERATIONS
------------------------------------------------

Number of amplitudes to be optimized       ... 8946168

Iter       E(tot)           E(Corr)          Delta-E          Residual     Time
  0   -875.235065267     -1.206870592      0.000000000      0.019294298   15.84
                           *** Turning on DIIS ***
  1   -875.226825823     -1.198631148      0.008239444      0.006383579   17.12
  2   -875.252668099     -1.224473424     -0.025842276      0.005867339   17.44
  3   -875.258751851     -1.230557175     -0.006083751      0.002639171   17.51
  4   -875.260132557     -1.231937882     -0.001380707      0.002083356   17.69
  5   -875.260564063     -1.232369387     -0.000431505      0.000913981   17.93
  6   -875.260727976     -1.232533301     -0.000163914      0.000328149   18.00
  7   -875.260781163     -1.232586488     -0.000053187      0.000116798   18.16
  8   -875.260784998     -1.232590323     -0.000003835      0.000059084   18.01
  9   -875.260788567     -1.232593892     -0.000003569      0.000030060   18.05
 10   -875.260788168     -1.232593492      0.000000399      0.000013584   18.45
               --- The Coupled-Cluster iterations have converged ---

----------------------
COUPLED CLUSTER ENERGY
----------------------

E(0)                                       ...   -874.028194676
E(CORR)                                    ...     -1.232593492
E(TOT)                                     ...   -875.260788168
Singles Norm <S|S>**1/2                    ...      0.093817015  
T1 diagnostic                              ...      0.014143447  

------------------
LARGEST AMPLITUDES
------------------
  28-> 34  -1-> -1       0.060337
  33-> 34  33-> 34       0.047917
  28-> 34  28-> 34       0.038030
  33-> 34  -1-> -1       0.030850
  26-> 34  -1-> -1       0.025032
  32-> 51  32-> 51       0.024777
  29-> 73  29-> 73       0.021859
  30-> 73  30-> 73       0.020355
  29-> 74  29-> 74       0.019213
  32-> 55  32-> 55       0.018957
  28-> 74  28-> 74       0.018144
  23-> 34  -1-> -1       0.018042
  30-> 71  30-> 71       0.017999
  29-> 72  29-> 72       0.017572
  31-> 51  31-> 51       0.017051
  32-> 50  32-> 50       0.016907


        !!!!!!!!!!!!!!!!!!!!!!!!!!!!!!!!!!!!!!!!!!!!!!!!!!!!!!!!!!!!!!!!!!!!!!!!!! 
        !  Warning: Densities are linearized densities !                         !
        !!!!!!!!!!!!!!!!!!!!!!!!!!!!!!!!!!!!!!!!!!!!!!!!!!!!!!!!!!!!!!!!!!!!!!!!!! 

Trace of internal density part =     -0.822808728
Trace of external density part =      0.822808728
----------------------
RHF TRIPLES CORRECTION (Algorithm 1)
----------------------

Multiplier for the singles contribution    ...      1.000000000

10% done
20% done
30% done
40% done
50% done
60% done
70% done
80% done
90% done

Triples Correction (T)                     ...     -0.041923983
Scaling of triples based on CCSD energies (Peterson et al. Molecular Physics 113, 1551 (2015))
E(T*) = f*E(T) where f = E(F12-CCSD)/E(CCSD) 
f = CCSD (with F12)/ CCSD (without F12)    ...      1.000000000
Scaled triples correction (T)              ...     -0.041923983

Final correlation energy                   ...     -1.274517475
E(CCSD)                                    ...   -875.260788168
E(CCSD(T))                                 ...   -875.302712151

NORM  =      1.420205996 sqrt=     1.191723960
W(HF) =      0.704123207
------------------------------------------------------------------------------
                           ORCA POPULATION ANALYSIS
------------------------------------------------------------------------------
Input electron density              ... manual_356_sp.mdcip
BaseName (.gbw .S,...)              ... manual_356_sp

                    ********************************
                    * MULLIKEN POPULATION ANALYSIS *
                    ********************************

-----------------------
MULLIKEN ATOMIC CHARGES
-----------------------
   0 C :   -0.438519
   1 C :   -0.136764
   2 C :   -0.101875
   3 I :   -0.623739
   4 H :    0.143826
   5 H :    0.133724
   6 H :    0.131128
   7 H :    0.148904
   8 H :    0.133758
   9 H :    0.201943
  10 H :    0.207502
  11 Cl:   -0.799888
Sum of atomic charges:   -1.0000000

--------------------------------
MULLIKEN REDUCED ORBITAL CHARGES
--------------------------------
  0 C s       :     3.256744  s :     3.256744
      pz      :     1.000014  p :     3.077449
      px      :     1.004909
      py      :     1.072526
      dz2     :     0.028632  d :     0.095398
      dxz     :     0.017276
      dyz     :     0.011186
      dx2y2   :     0.011475
      dxy     :     0.026829
      f0      :     0.001298  f :     0.008928
      f+1     :     0.002043
      f-1     :     0.000868
      f+2     :     0.000984
      f-2     :     0.001262
      f+3     :     0.001543
      f-3     :     0.000929
  1 C s       :     3.114190  s :     3.114190
      pz      :     1.007468  p :     2.884886
      px      :     0.945352
      py      :     0.932066
      dz2     :     0.032478  d :     0.126882
      dxz     :     0.023831
      dyz     :     0.016945
      dx2y2   :     0.018797
      dxy     :     0.034832
      f0      :     0.001571  f :     0.010806
      f+1     :     0.002113
      f-1     :     0.001079
      f+2     :     0.001054
      f-2     :     0.001685
      f+3     :     0.001811
      f-3     :     0.001493
  2 C s       :     3.245853  s :     3.245853
      pz      :     0.881234  p :     2.718826
      px      :     0.845429
      py      :     0.992163
      dz2     :     0.013809  d :     0.127971
      dxz     :     0.036313
      dyz     :     0.027706
      dx2y2   :     0.028482
      dxy     :     0.021662
      f0      :     0.001044  f :     0.009225
      f+1     :     0.001116
      f-1     :     0.000998
      f+2     :     0.001469
      f-2     :     0.001588
      f+3     :     0.001344
      f-3     :     0.001666
  3 I s       :     3.961746  s :     3.961746
      pz      :     3.811867  p :    11.523681
      px      :     3.772384
      py      :     3.939431
      dz2     :     2.012907  d :    10.070018
      dxz     :     2.018622
      dyz     :     2.012020
      dx2y2   :     2.013178
      dxy     :     2.013290
      f0      :     0.009713  f :     0.068294
      f+1     :     0.009990
      f-1     :     0.009479
      f+2     :     0.010021
      f-2     :     0.009853
      f+3     :     0.009588
      f-3     :     0.009650
  4 H s       :     0.832239  s :     0.832239
      pz      :     0.005069  p :     0.023935
      px      :     0.008429
      py      :     0.010436
  5 H s       :     0.842268  s :     0.842268
      pz      :     0.012208  p :     0.024009
      px      :     0.006614
      py      :     0.005186
  6 H s       :     0.844812  s :     0.844812
      pz      :     0.005332  p :     0.024060
      px      :     0.007910
      py      :     0.010818
  7 H s       :     0.826557  s :     0.826557
      pz      :     0.005310  p :     0.024539
      px      :     0.007978
      py      :     0.011252
  8 H s       :     0.841257  s :     0.841257
      pz      :     0.012958  p :     0.024984
      px      :     0.006777
      py      :     0.005249
  9 H s       :     0.772247  s :     0.772247
      pz      :     0.007721  p :     0.025810
      px      :     0.005179
      py      :     0.012910
 10 H s       :     0.767219  s :     0.767219
      pz      :     0.010672  p :     0.025280
      px      :     0.009756
      py      :     0.004852
 11 Cls       :     5.948972  s :     5.948972
      pz      :     3.901399  p :    11.724779
      px      :     3.902262
      py      :     3.921118
      dz2     :     0.022720  d :     0.115683
      dxz     :     0.023752
      dyz     :     0.023241
      dx2y2   :     0.022767
      dxy     :     0.023203
      f0      :     0.001476  f :     0.010453
      f+1     :     0.001507
      f-1     :     0.001483
      f+2     :     0.001490
      f-2     :     0.001538
      f+3     :     0.001464
      f-3     :     0.001496


                     *******************************
                     * LOEWDIN POPULATION ANALYSIS *
                     *******************************

----------------------
LOEWDIN ATOMIC CHARGES
----------------------
   0 C :   -0.325104
   1 C :   -0.353773
   2 C :   -0.263746
   3 I :   -0.381125
   4 H :    0.125557
   5 H :    0.122400
   6 H :    0.123567
   7 H :    0.144511
   8 H :    0.147695
   9 H :    0.129978
  10 H :    0.131639
  11 Cl:   -0.601599

-------------------------------
LOEWDIN REDUCED ORBITAL CHARGES
-------------------------------
  0 C s       :     2.830624  s :     2.830624
      pz      :     1.050034  p :     3.158278
      px      :     1.045399
      py      :     1.062845
      dz2     :     0.095745  d :     0.303740
      dxz     :     0.063653
      dyz     :     0.026507
      dx2y2   :     0.026836
      dxy     :     0.090999
      f0      :     0.004076  f :     0.032463
      f+1     :     0.007201
      f-1     :     0.004056
      f+2     :     0.005104
      f-2     :     0.004603
      f+3     :     0.005111
      f-3     :     0.002311
  1 C s       :     2.782392  s :     2.782392
      pz      :     1.037442  p :     3.082749
      px      :     1.026210
      py      :     1.019097
      dz2     :     0.105835  d :     0.441559
      dxz     :     0.090924
      dyz     :     0.051823
      dx2y2   :     0.068934
      dxy     :     0.124043
      f0      :     0.006146  f :     0.047072
      f+1     :     0.007706
      f-1     :     0.005779
      f+2     :     0.005454
      f-2     :     0.007373
      f+3     :     0.008243
      f-3     :     0.006371
  2 C s       :     2.943179  s :     2.943179
      pz      :     0.932841  p :     2.915700
      px      :     0.924998
      py      :     1.057861
      dz2     :     0.032965  d :     0.373921
      dxz     :     0.104032
      dyz     :     0.080690
      dx2y2   :     0.087779
      dxy     :     0.068455
      f0      :     0.003328  f :     0.030947
      f+1     :     0.003570
      f-1     :     0.002536
      f+2     :     0.004159
      f-2     :     0.006122
      f+3     :     0.004312
      f-3     :     0.006918
  3 I s       :     3.838369  s :     3.838369
      pz      :     3.762520  p :    11.381932
      px      :     3.707349
      py      :     3.912063
      dz2     :     2.016174  d :    10.091348
      dxz     :     2.027825
      dyz     :     2.014821
      dx2y2   :     2.015086
      dxy     :     2.017441
      f0      :     0.009847  f :     0.069477
      f+1     :     0.010275
      f-1     :     0.009544
      f+2     :     0.010246
      f-2     :     0.010112
      f+3     :     0.009638
      f-3     :     0.009814
  4 H s       :     0.808132  s :     0.808132
      pz      :     0.013684  p :     0.066310
      px      :     0.022485
      py      :     0.030141
  5 H s       :     0.810923  s :     0.810923
      pz      :     0.033490  p :     0.066677
      px      :     0.018897
      py      :     0.014290
  6 H s       :     0.809645  s :     0.809645
      pz      :     0.014699  p :     0.066788
      px      :     0.021260
      py      :     0.030829
  7 H s       :     0.790272  s :     0.790272
      pz      :     0.014644  p :     0.065217
      px      :     0.021444
      py      :     0.029130
  8 H s       :     0.785976  s :     0.785976
      pz      :     0.034120  p :     0.066329
      px      :     0.018687
      py      :     0.013522
  9 H s       :     0.795728  s :     0.795728
      pz      :     0.022634  p :     0.074293
      px      :     0.013739
      py      :     0.037920
 10 H s       :     0.795526  s :     0.795526
      pz      :     0.031617  p :     0.072835
      px      :     0.027900
      py      :     0.013318
 11 Cls       :     5.865499  s :     5.865499
      pz      :     3.857986  p :    11.603733
      px      :     3.866246
      py      :     3.879501
      dz2     :     0.023303  d :     0.121481
      dxz     :     0.026032
      dyz     :     0.024207
      dx2y2   :     0.023547
      dxy     :     0.024391
      f0      :     0.001523  f :     0.010886
      f+1     :     0.001580
      f-1     :     0.001518
      f+2     :     0.001532
      f-2     :     0.001688
      f+3     :     0.001486
      f-3     :     0.001559


------------------
HIRSHFELD ANALYSIS
------------------

Total integrated alpha density =     33.999335184
Total integrated beta density  =     33.999335184

  ATOM     CHARGE      SPIN  
   0 C   -0.074301    0.000000
   1 C   -0.037137    0.000000
   2 C    0.078162    0.000000
   3 I   -0.520929    0.000000
   4 H    0.030433    0.000000
   5 H    0.017540    0.000000
   6 H    0.018944    0.000000
   7 H    0.031456    0.000000
   8 H    0.029910    0.000000
   9 H    0.046195    0.000000
  10 H    0.051766    0.000000
  11 Cl  -0.670710    0.000000

  TOTAL  -0.998670    0.000000     96143.1


                      *****************************
                      * MAYER POPULATION ANALYSIS *
                      *****************************

  NA   - Mulliken gross atomic population
  ZA   - Total nuclear charge
  QA   - Mulliken gross atomic charge
  VA   - Mayer's total valence
  BVA  - Mayer's bonded valence
  FA   - Mayer's free valence

  ATOM       NA         ZA         QA         VA         BVA        FA
  0 C      6.4385     6.0000    -0.4385     4.0517     3.6883     0.3634
  1 C      6.1368     6.0000    -0.1368     3.9133     3.5528     0.3605
  2 C      6.1019     6.0000    -0.1019     3.7851     3.3938     0.3913
  3 I     25.6237    25.0000    -0.6237     1.4817     0.5623     0.9194
  4 H      0.8562     1.0000     0.1438     0.9724     0.9091     0.0632
  5 H      0.8663     1.0000     0.1337     0.9784     0.9128     0.0656
  6 H      0.8689     1.0000     0.1311     0.9948     0.9286     0.0662
  7 H      0.8511     1.0000     0.1489     0.9610     0.8968     0.0642
  8 H      0.8662     1.0000     0.1338     1.0046     0.9388     0.0658
  9 H      0.7981     1.0000     0.2019     0.9748     0.9148     0.0599
 10 H      0.7925     1.0000     0.2075     0.9673     0.9088     0.0585
 11 Cl    17.7999    17.0000    -0.7999     1.0037     0.3118     0.6919

  Mayer bond orders larger than 0.100000
B(  0-C ,  1-C ) :   0.9177 B(  0-C ,  4-H ) :   0.9257 B(  0-C ,  5-H ) :   0.9194 
B(  0-C ,  6-H ) :   0.9212 B(  1-C ,  2-C ) :   0.9083 B(  1-C ,  7-H ) :   0.8994 
B(  1-C ,  8-H ) :   0.8854 B(  2-C ,  3-I ) :   0.5003 B(  2-C ,  9-H ) :   0.8971 
B(  2-C , 10-H ) :   0.8967 B(  2-C , 11-Cl) :   0.1826 



------------------------------------------------------------------------------- 
                                     TIMINGS                                   
------------------------------------------------------------------------------- 


Total execution time                   ...      494.658 sec

Fock Matrix Formation                  ...        3.274 sec (  0.7%)
Initial Guess                          ...        0.114 sec (  0.0%)
DIIS Solver                            ...       10.983 sec (  2.2%)
State Vector Update                    ...        0.418 sec (  0.1%)
Sigma-vector construction              ...      182.799 sec ( 37.0%)
  <0|H|D>                              ...        0.121 sec (  0.1% of sigma)
  <D|H|D>(0-ext)                       ...       14.822 sec (  8.1% of sigma)
  <D|H|D>(2-ext Fock)                  ...        0.324 sec (  0.2% of sigma)
  <D|H|D>(2-ext)                       ...       21.990 sec ( 12.0% of sigma)
  <D|H|D>(4-ext)                       ...       22.066 sec ( 12.1% of sigma)
  <D|H|D>(4-ext-corr)                  ...       17.225 sec (  9.4% of sigma)
  <S|H|0>                              ...        0.075 sec (  0.0% of sigma)
  <S|H|S>                              ...        0.222 sec (  0.1% of sigma)
  <S|H|D>(1-ext)                       ...        2.285 sec (  1.2% of sigma)
  <D|H|S>(1-ext)                       ...        3.890 sec (  2.1% of sigma)
  <S|H|D>(3-ext)                       ...       13.289 sec (  7.3% of sigma)
  Fock-dressing                        ...       26.758 sec ( 14.6% of sigma)
  (ik|jl)-dressing                     ...       17.287 sec (  9.5% of sigma)
  (ij|ab),(ia|jb)-dressing             ...       40.782 sec ( 22.3% of sigma)
  Pair energies                        ...        0.148 sec (  0.1% of sigma)
Total Time for computing (T)           ...      240.141 sec ( 48.5% of ALL)
  I/O of integral and amplitudes       ...       14.756 sec (  6.1% of (T))
  N**6 sorting step                    ...       70.479 sec ( 29.3% of (T))
  External N**7 contributions          ...       92.572 sec ( 38.5% of (T))
  Internal N**7 contributions          ...       24.058 sec ( 10.0% of (T))
  N**6 triples energy contributions    ...       38.274 sec ( 15.9% of (T))
One-particle density matrix            ...        0.248 sec (  0.1%)


-------------------------   --------------------
FINAL SINGLE POINT ENERGY      -875.302712150737
-------------------------   --------------------


                            ***************************************
                            *     ORCA property calculations      *
                            ***************************************

                                    ---------------------
                                    Active property flags
                                    ---------------------
   (+) Dipole Moment


------------------------------------------------------------------------------
                       ORCA ELECTRIC PROPERTIES CALCULATION
------------------------------------------------------------------------------

Dipole Moment Calculation                       ... on
Quadrupole Moment Calculation                   ... off
Polarizability Calculation                      ... off
GBWName                                         ... manual_356_sp.gbw
Electron density file                           ... manual_356_sp.scfp
The origin for moment calculation is the CENTER OF MASS  = (15.116716,  1.079858 -0.664100)

-------------
DIPOLE MOMENT
-------------
                                X             Y             Z
Electronic contribution:     95.84164     -16.81594     -61.70423
Nuclear contribution   :    -94.91274      14.79564      59.91962
                        -----------------------------------------
Total Dipole Moment    :      0.92890      -2.02029      -1.78462
                        -----------------------------------------
Magnitude (a.u.)       :      2.85119
Magnitude (Debye)      :      7.24715



--------------------
Rotational spectrum 
--------------------
 
Rotational constants in cm-1:     0.115416     0.020414     0.017930 
Rotational constants in MHz :  3460.084850   611.993973   537.520860 

 Dipole components along the rotational axes: 
x,y,z [a.u.] :     2.318789     1.589159    -0.476535 
x,y,z [Debye]:     5.893892     4.039322    -1.211257 

 

                           *** MDCI DENSITY ***

------------------------------------------------------------------------------
                       ORCA ELECTRIC PROPERTIES CALCULATION
------------------------------------------------------------------------------

Dipole Moment Calculation                       ... on
Quadrupole Moment Calculation                   ... off
Polarizability Calculation                      ... off
GBWName                                         ... manual_356_sp.gbw
Electron density file                           ... manual_356_sp.mdcip
The origin for moment calculation is the CENTER OF MASS  = (15.116716,  1.079858 -0.664100)

-------------
DIPOLE MOMENT
-------------
                                X             Y             Z
Electronic contribution:     96.07837     -16.77975     -61.85467
Nuclear contribution   :    -94.91274      14.79564      59.91962
                        -----------------------------------------
Total Dipole Moment    :      1.16563      -1.98411      -1.93506
                        -----------------------------------------
Magnitude (a.u.)       :      3.00663
Magnitude (Debye)      :      7.64224



--------------------
Rotational spectrum 
--------------------
 
Rotational constants in cm-1:     0.115416     0.020414     0.017930 
Rotational constants in MHz :  3460.084850   611.993973   537.520860 

 Dipole components along the rotational axes: 
x,y,z [a.u.] :     2.577511     1.489934    -0.419947 
x,y,z [Debye]:     6.551512     3.787110    -1.067420 

 
[1631550435.060176] [comp0807:248585:0]            sys.c:618  UCX  ERROR shmget(size=2097152 flags=0xfb0) for mm_recv_desc failed: Operation not permitted, please check shared memory limits by 'ipcs -l'
[1631550435.060205] [comp0807:248587:0]            sys.c:618  UCX  ERROR shmget(size=2097152 flags=0xfb0) for mm_recv_desc failed: Operation not permitted, please check shared memory limits by 'ipcs -l'
[1631550435.080018] [comp0807:248586:0]            sys.c:618  UCX  ERROR shmget(size=2097152 flags=0xfb0) for mm_recv_desc failed: Operation not permitted, please check shared memory limits by 'ipcs -l'
[1631550435.091099] [comp0807:248588:0]            sys.c:618  UCX  ERROR shmget(size=2097152 flags=0xfb0) for mm_recv_desc failed: Operation not permitted, please check shared memory limits by 'ipcs -l'
[1631550435.099008] [comp0807:248587:0]            sys.c:618  UCX  ERROR shmget(size=2097152 flags=0xb80) for ucp_am_bufs failed: Operation not permitted, please check shared memory limits by 'ipcs -l'
[1631550435.099013] [comp0807:248585:0]            sys.c:618  UCX  ERROR shmget(size=2097152 flags=0xb80) for ucp_am_bufs failed: Operation not permitted, please check shared memory limits by 'ipcs -l'
[1631550435.101496] [comp0807:248586:0]            sys.c:618  UCX  ERROR shmget(size=2097152 flags=0xb80) for ucp_am_bufs failed: Operation not permitted, please check shared memory limits by 'ipcs -l'

Timings for individual modules:

Sum of individual times         ...      545.838 sec (=   9.097 min)
GTO integral calculation        ...        1.417 sec (=   0.024 min)   0.3 %
SCF iterations                  ...       48.036 sec (=   0.801 min)   8.8 %
MDCI module                     ...      496.386 sec (=   8.273 min)  90.9 %
                             ****ORCA TERMINATED NORMALLY****
TOTAL RUN TIME: 0 days 0 hours 9 minutes 7 seconds 136 msec
