
                                 *****************
                                 * O   R   C   A *
                                 *****************

           --- An Ab Initio, DFT and Semiempirical electronic structure package ---

                  #######################################################
                  #                        -***-                        #
                  #          Department of theory and spectroscopy      #
                  #               Directorship: Frank Neese             #
                  #        Max Planck Institute fuer Kohlenforschung    #
                  #                Kaiser Wilhelm Platz 1               #
                  #                 D-45470 Muelheim/Ruhr               #
                  #                      Germany                        #
                  #                                                     #
                  #                  All rights reserved                #
                  #                        -***-                        #
                  #######################################################


                         Program Version 4.2.1 -  RELEASE  -


 With contributions from (in alphabetic order):
   Daniel Aravena         : Magnetic Suceptibility
   Michael Atanasov       : Ab Initio Ligand Field Theory (pilot matlab implementation)
   Alexander A. Auer      : GIAO ZORA, VPT2
   Ute Becker             : Parallelization
   Giovanni Bistoni       : ED, misc. LED, open-shell LED, HFLD
   Martin Brehm           : Molecular dynamics
   Dmytro Bykov           : SCF Hessian
   Vijay G. Chilkuri      : MRCI spin determinant printing, contributions to CSF-ICE
   Dipayan Datta          : RHF DLPNO-CCSD density
   Achintya Kumar Dutta   : EOM-CC, STEOM-CC
   Dmitry Ganyushin       : Spin-Orbit,Spin-Spin,Magnetic field MRCI
   Miquel Garcia          : C-PCM Hessian, Gaussian charge scheme
   Yang Guo               : DLPNO-NEVPT2, CIM, IAO-localization
   Andreas Hansen         : Spin unrestricted coupled pair/coupled cluster methods
   Benjamin Helmich-Paris : CASSCF linear response (MC-RPA)
   Lee Huntington         : MR-EOM, pCC
   Robert Izsak           : Overlap fitted RIJCOSX, COSX-SCS-MP3, EOM
   Christian Kollmar      : KDIIS, OOCD, Brueckner-CCSD(T), CCSD density
   Simone Kossmann        : Meta GGA functionals, TD-DFT gradient, OOMP2, MP2 Hessian
   Martin Krupicka        : AUTO-CI
   Lucas Lang             : DCDCAS
   Dagmar Lenk            : GEPOL surface, SMD
   Dimitrios Liakos       : Extrapolation schemes; Compound Job, initial MDCI parallelization
   Dimitrios Manganas     : Further ROCIS development; embedding schemes
   Dimitrios Pantazis     : SARC Basis sets
   Taras Petrenko         : DFT Hessian,TD-DFT gradient, ASA, ECA, R-Raman, ABS, FL, XAS/XES, NRVS
   Peter Pinski           : DLPNO-MP2, DLPNO-MP2 Gradient
   Christoph Reimann      : Effective Core Potentials
   Marius Retegan         : Local ZFS, SOC
   Christoph Riplinger    : Optimizer, TS searches, QM/MM, DLPNO-CCSD(T), (RO)-DLPNO pert. Triples
   Tobias Risthaus        : Range-separated hybrids, TD-DFT gradient, RPA, STAB
   Michael Roemelt        : Original ROCIS implementation
   Masaaki Saitow         : Open-shell DLPNO-CCSD energy and density
   Barbara Sandhoefer     : DKH picture change effects
   Avijit Sen             : IP-ROCIS
   Kantharuban Sivalingam : CASSCF convergence, NEVPT2, FIC-MRCI
   Bernardo de Souza      : ESD, SOC TD-DFT
   Georgi Stoychev        : AutoAux, RI-MP2 NMR
   Willem Van den Heuvel  : Paramagnetic NMR
   Boris Wezisla          : Elementary symmetry handling
   Frank Wennmohs         : Technical directorship


 We gratefully acknowledge several colleagues who have allowed us to
 interface, adapt or use parts of their codes:
   Stefan Grimme, W. Hujo, H. Kruse,             : VdW corrections, initial TS optimization,
                  C. Bannwarth                     DFT functionals, gCP, sTDA/sTD-DF
   Ed Valeev, F. Pavosevic, A. Kumar             : LibInt (2-el integral package), F12 methods
   Garnet Chan, S. Sharma, J. Yang, R. Olivares  : DMRG
   Ulf Ekstrom                                   : XCFun DFT Library
   Mihaly Kallay                                 : mrcc  (arbitrary order and MRCC methods)
   Andreas Klamt, Michael Diedenhofen            : otool_cosmo (COSMO solvation model)
   Jiri Pittner, Ondrej Demel                    : Mk-CCSD
   Frank Weinhold                                : gennbo (NPA and NBO analysis)
   Christopher J. Cramer and Donald G. Truhlar   : smd solvation model
   Lars Goerigk                                  : TD-DFT with DH, B97 family of functionals
   V. Asgeirsson, H. Jonsson                     : NEB implementation
   FAccTs GmbH                                   : IRC, NEB, NEB-TS, Multilevel, MM, QM/MM, CI optimization
   S Lehtola, MJT Oliveira, MAL Marques          : LibXC Library


 Your calculation uses the libint2 library for the computation of 2-el integrals
 For citations please refer to: http://libint.valeyev.net

 Your ORCA version has been built with support for libXC version: 4.2.3
 For citations please refer to: https://tddft.org/programs/libxc/

 This ORCA versions uses:
   CBLAS   interface :  Fast vector & matrix operations
   LAPACKE interface :  Fast linear algebra routines
   SCALAPACK package :  Parallel linear algebra routines


Your calculation utilizes the atom-pairwise dispersion correction
with the Becke-Johnson damping scheme (D3BJ)
Cite in your paper:
S.Grimme, S.Ehrlich, L.Goerigk, J Comput Chem, (2011), 32, 1456–1465 
S.Grimme, J.Antony, S.Ehrlich and H.Krieg, J.Chem.Phys., 132, (2010), 154104 
   

----- Orbital basis set information -----
Your calculation utilizes the basis: def2-SVP
   F. Weigend and R. Ahlrichs, Phys. Chem. Chem. Phys. 7, 3297 (2005).

----- AuxJ basis set information -----
Your calculation utilizes the auxiliary basis: def2/J
   F. Weigend, Phys. Chem. Chem. Phys. 8, 1057 (2006).

================================================================================
                                        WARNINGS
                       Please study these warnings very carefully!
================================================================================


WARNING: Geometry Optimization
  ===> : Switching off AutoStart
         For restart on a previous wavefunction, please use MOREAD

INFO   : the flag for use of LIBINT has been found!

================================================================================
                                       INPUT FILE
================================================================================
NAME = manual_reactants_339_opt.inp
|  1> ! Opt PBE0 RIJCOSX D3BJ def2-SVP def2/J CPCM(Acetone)
|  2> %geom MaxIter 100 end
|  3> %output 
|  4> xyzfile=True 
|  5> end 
|  6> %scf 
|  7> maxiter 250 
|  8> end
|  9> %output
| 10> Print[P_Hirshfeld] = 1
| 11> end
| 12> % maxcore
| 13> 4000
| 14> %pal nprocs 4
| 15> end
| 16> *xyz -1 1
| 17> C     1.40035  -0.50972  -0.82399
| 18> C     0.12001  -0.24478  -0.07013
| 19> C    -0.67977  -1.48890   0.23343
| 20> Br   -1.00360   1.03534  -1.10493
| 21> H     1.92408   0.42252  -1.07953
| 22> H     1.21397  -1.07795  -1.74831
| 23> H     2.04513  -1.09813  -0.15139
| 24> H     0.33930   0.29424   0.86032
| 25> H    -1.60790  -1.25470   0.77443
| 26> H    -0.05115  -2.11161   0.89102
| 27> H    -0.93269  -2.04436  -0.68285
| 28> Cl    1.89382  -1.37812   2.74643
| 29> 
| 30> *
| 31> 
| 32>                          ****END OF INPUT****
================================================================================

                       *****************************
                       * Geometry Optimization Run *
                       *****************************

Geometry optimization settings:
Update method            Update   .... BFGS
Choice of coordinates    CoordSys .... Z-matrix Internals
Initial Hessian          InHess   .... Almoef's Model

Convergence Tolerances:
Energy Change            TolE     ....  5.0000e-06 Eh
Max. Gradient            TolMAXG  ....  3.0000e-04 Eh/bohr
RMS Gradient             TolRMSG  ....  1.0000e-04 Eh/bohr
Max. Displacement        TolMAXD  ....  4.0000e-03 bohr
RMS Displacement         TolRMSD  ....  2.0000e-03 bohr
Strict Convergence                ....  False
------------------------------------------------------------------------------
                        ORCA OPTIMIZATION COORDINATE SETUP
------------------------------------------------------------------------------

The optimization will be done in new redundant internal coordinates
Making redundant internal coordinates   ...  (new redundants) done
Evaluating the initial hessian          ...  (Almloef) done
Evaluating the coordinates              ...  done
Calculating the B-matrix                .... done
Calculating the G-matrix                .... done
Diagonalizing the G-matrix              .... done
The first mode is                       ....   45
The number of degrees of freedom        ....   30

    -----------------------------------------------------------------
                    Redundant Internal Coordinates


    -----------------------------------------------------------------
         Definition                    Initial Value    Approx d2E/dq
    -----------------------------------------------------------------
      1. B(C   1,C   0)                  1.5092         0.403198   
      2. B(C   2,C   1)                  1.5098         0.402285   
      3. B(Br  3,C   1)                  1.9930         0.229191   
      4. B(H   4,C   0)                  1.0994         0.347886   
      5. B(H   5,C   0)                  1.1009         0.345960   
      6. B(H   6,C   0)                  1.1020         0.344597   
      7. B(H   7,C   1)                  1.0974         0.350395   
      8. B(H   8,C   2)                  1.0995         0.347717   
      9. B(H   9,C   2)                  1.1024         0.344024   
     10. B(H  10,C   2)                  1.1009         0.345912   
     11. B(Cl 11,H   7)                  2.9615         0.000835   
     12. B(Cl 11,H   6)                  2.9152         0.000989   
     13. B(Cl 11,C   2)                  3.5987         0.000420   
     14. B(Cl 11,H   9)                  2.7863         0.001589   
     15. B(Cl 11,C   1)                  3.5162         0.000568   
     16. A(C   1,C   0,H   5)          111.4918         0.326258   
     17. A(C   1,C   0,H   4)          111.8007         0.326556   
     18. A(H   4,C   0,H   5)          108.8546         0.287462   
     19. A(H   5,C   0,H   6)          109.6280         0.287035   
     20. A(C   1,C   0,H   6)          106.5729         0.326046   
     21. A(H   4,C   0,H   6)          108.4156         0.287284   
     22. A(C   2,C   1,Cl 11)           80.8268         0.156943   
     23. A(C   0,C   1,C   2)          113.9005         0.372848   
     24. A(Br  3,C   1,Cl 11)          155.1400         0.153902   
     25. A(H   7,C   1,Cl 11)           51.5651         0.145955   
     26. A(C   0,C   1,H   7)          109.8892         0.326943   
     27. A(Br  3,C   1,H   7)          103.7326         0.316175   
     28. A(C   0,C   1,Cl 11)           85.1567         0.156978   
     29. A(C   0,C   1,Br  3)          109.3710         0.360143   
     30. A(C   2,C   1,Br  3)          109.5736         0.360004   
     31. A(C   2,C   1,H   7)          109.8833         0.326820   
     32. A(H   8,C   2,H   9)          107.9477         0.287188   
     33. A(C   1,C   2,H   9)          106.4585         0.325835   
     34. A(H  10,C   2,Cl 11)          139.5521         0.142024   
     35. A(H   9,C   2,Cl 11)           36.2034         0.141959   
     36. A(H   8,C   2,Cl 11)          104.6859         0.142087   
     37. A(C   1,C   2,Cl 11)           74.7052         0.152439   
     38. A(H   9,C   2,H  10)          110.0262         0.286955   
     39. A(H   8,C   2,H  10)          108.8473         0.287434   
     40. A(C   1,C   2,H  10)          111.7216         0.326128   
     41. A(C   1,C   2,H   8)          111.7495         0.326408   
     42. A(C   1,Cl 11,C   2)           24.4680         0.104193   
     43. D(C   2,C   1,C   0,H   6)    -65.1446         0.013682   
     44. D(Br  3,C   1,C   0,H   4)     53.5872         0.013682   
     45. D(Cl 11,C   1,C   0,H   6)     12.5838         0.013682   
     46. D(Cl 11,C   1,C   0,H   4)   -105.7120         0.013682   
     47. D(C   2,C   1,C   0,H   4)    176.5596         0.013682   
     48. D(C   2,C   1,C   0,H   5)     54.4485         0.013682   
     49. D(H   7,C   1,C   0,H   5)    178.2230         0.013682   
     50. D(Br  3,C   1,C   0,H   6)    171.8830         0.013682   
     51. D(Cl 11,C   1,C   0,H   5)    132.1769         0.013682   
     52. D(Br  3,C   1,C   0,H   5)    -68.5239         0.013682   
     53. D(H   7,C   1,C   0,H   4)    -59.6659         0.013682   
     54. D(H   7,C   1,C   0,H   6)     58.6299         0.013682   
     55. D(H   8,C   2,C   1,H   7)     56.7318         0.014372   
     56. D(H   8,C   2,C   1,Br  3)    -56.6288         0.014372   
     57. D(H   8,C   2,C   1,C   0)   -179.4905         0.014372   
     58. D(Cl 11,C   2,C   1,C   0)     80.4965         0.014372   
     59. D(H  10,C   2,C   1,Cl 11)   -137.7565         0.014372   
     60. D(H  10,C   2,C   1,Br  3)     65.6017         0.014372   
     61. D(H  10,C   2,C   1,C   0)    -57.2600         0.014372   
     62. D(H   9,C   2,C   1,Cl 11)    -17.6197         0.014372   
     63. D(H   9,C   2,C   1,H   7)    -60.9008         0.014372   
     64. D(H  10,C   2,C   1,H   7)    178.9623         0.014372   
     65. D(H   9,C   2,C   1,Br  3)   -174.2615         0.014372   
     66. D(H   9,C   2,C   1,C   0)     62.8769         0.014372   
     67. D(Cl 11,C   2,C   1,Br  3)   -156.6418         0.014372   
     68. D(Cl 11,C   2,C   1,H   7)    -43.2812         0.014372   
     69. D(H   8,C   2,C   1,Cl 11)    100.0130         0.014372   
     70. D(C   1,Cl 11,C   2,H   8)   -108.9933         0.001500   
     71. D(C   2,Cl 11,C   1,H   7)    124.6084         0.001500   
     72. D(C   2,Cl 11,C   1,Br  3)    117.3031         0.001500   
     73. D(C   2,Cl 11,C   1,C   0)   -115.1856         0.001500   
     74. D(C   1,Cl 11,C   2,H  10)    105.7020         0.001500   
     75. D(C   1,Cl 11,C   2,H   9)    150.5622         0.001500   
    -----------------------------------------------------------------

Number of atoms                         .... 12
Number of degrees of freedom            .... 75

         *************************************************************
         *                GEOMETRY OPTIMIZATION CYCLE   1            *
         *************************************************************
---------------------------------
CARTESIAN COORDINATES (ANGSTROEM)
---------------------------------
  C      1.400350   -0.509720   -0.823990
  C      0.120010   -0.244780   -0.070130
  C     -0.679770   -1.488900    0.233430
  Br    -1.003600    1.035340   -1.104930
  H      1.924080    0.422520   -1.079530
  H      1.213970   -1.077950   -1.748310
  H      2.045130   -1.098130   -0.151390
  H      0.339300    0.294240    0.860320
  H     -1.607900   -1.254700    0.774430
  H     -0.051150   -2.111610    0.891020
  H     -0.932690   -2.044360   -0.682850
  Cl     1.893820   -1.378120    2.746430

----------------------------
CARTESIAN COORDINATES (A.U.)
----------------------------
  NO LB      ZA    FRAG     MASS         X           Y           Z
   0 C     6.0000    0    12.011    2.646278   -0.963231   -1.557115
   1 C     6.0000    0    12.011    0.226786   -0.462567   -0.132526
   2 C     6.0000    0    12.011   -1.284579   -2.813613    0.441119
   3 Br   35.0000    0    79.900   -1.896529    1.956509   -2.088015
   4 H     1.0000    0     1.008    3.635984    0.798447   -2.040016
   5 H     1.0000    0     1.008    2.294071   -2.037030   -3.303827
   6 H     1.0000    0     1.008    3.864736   -2.075165   -0.286086
   7 H     1.0000    0     1.008    0.641184    0.556033    1.625769
   8 H     1.0000    0     1.008   -3.038491   -2.371039    1.463461
   9 H     1.0000    0     1.008   -0.096659   -3.990365    1.683784
  10 H     1.0000    0     1.008   -1.762529   -3.863281   -1.290399
  11 Cl   17.0000    0    35.453    3.578801   -2.604269    5.190001

--------------------------------
INTERNAL COORDINATES (ANGSTROEM)
--------------------------------
 C      0   0   0     0.000000000000     0.00000000     0.00000000
 C      1   0   0     1.509227822034     0.00000000     0.00000000
 C      2   1   0     1.509844792156   113.90051909     0.00000000
 Br     2   1   3     1.992992144114   109.37098078   237.02764000
 H      1   2   3     1.099393115360   111.80073625   176.55957586
 H      1   2   3     1.100904309965   111.49175464    54.44850714
 H      1   2   3     1.101979281339   106.57288276   294.85536695
 H      2   1   3     1.097436953542   109.88920568   123.77450248
 H      3   2   1     1.099525323446   111.74947244   180.50951342
 H      3   2   1     1.102431610849   106.45845177    62.87686274
 H      3   2   1     1.100942040436   111.72156118   302.73998388
 Cl    10   3   2     2.786299005688   130.28160398    29.62533657

---------------------------
INTERNAL COORDINATES (A.U.)
---------------------------
 C      0   0   0     0.000000000000     0.00000000     0.00000000
 C      1   0   0     2.852027257338     0.00000000     0.00000000
 C      2   1   0     2.853193161902   113.90051909     0.00000000
 Br     2   1   3     3.766209339432   109.37098078   237.02764000
 H      1   2   3     2.077551901548   111.80073625   176.55957586
 H      1   2   3     2.080407645488   111.49175464    54.44850714
 H      1   2   3     2.082439046986   106.57288276   294.85536695
 H      2   1   3     2.073855291440   109.88920568   123.77450248
 H      3   2   1     2.077801738625   111.74947244   180.50951342
 H      3   2   1     2.083293825883   106.45845177    62.87686274
 H      3   2   1     2.080478945745   111.72156118   302.73998388
 Cl    10   3   2     5.265342047968   130.28160398    29.62533657

---------------------
BASIS SET INFORMATION
---------------------
There are 4 groups of distinct atoms

 Group   1 Type C   : 7s4p1d contracted to 3s2p1d pattern {511/31/1}
 Group   2 Type Br  : 14s10p6d contracted to 5s4p3d pattern {63311/5311/411}
 Group   3 Type H   : 4s1p contracted to 2s1p pattern {31/1}
 Group   4 Type Cl  : 10s7p1d contracted to 4s3p1d pattern {5311/511/1}

Atom   0C    basis set group =>   1
Atom   1C    basis set group =>   1
Atom   2C    basis set group =>   1
Atom   3Br   basis set group =>   2
Atom   4H    basis set group =>   3
Atom   5H    basis set group =>   3
Atom   6H    basis set group =>   3
Atom   7H    basis set group =>   3
Atom   8H    basis set group =>   3
Atom   9H    basis set group =>   3
Atom  10H    basis set group =>   3
Atom  11Cl   basis set group =>   4
---------------------------------
AUXILIARY/J BASIS SET INFORMATION
---------------------------------
There are 4 groups of distinct atoms

 Group   1 Type C   : 12s5p4d2f1g contracted to 6s4p3d1f1g pattern {711111/2111/211/2/1}
 Group   2 Type Br  : 19s5p5d3f1g contracted to 8s4p3d2f1g pattern {121111111/2111/311/21/1}
 Group   3 Type H   : 5s2p1d contracted to 3s1p1d pattern {311/2/1}
 Group   4 Type Cl  : 14s5p5d2f1g contracted to 8s4p3d1f1g pattern {71111111/2111/311/2/1}

Atom   0C    basis set group =>   1
Atom   1C    basis set group =>   1
Atom   2C    basis set group =>   1
Atom   3Br   basis set group =>   2
Atom   4H    basis set group =>   3
Atom   5H    basis set group =>   3
Atom   6H    basis set group =>   3
Atom   7H    basis set group =>   3
Atom   8H    basis set group =>   3
Atom   9H    basis set group =>   3
Atom  10H    basis set group =>   3
Atom  11Cl   basis set group =>   4
[1631719747.768878] [comp0810:223611:0]            sys.c:618  UCX  ERROR shmget(size=2097152 flags=0xfb0) for mm_recv_desc failed: Operation not permitted, please check shared memory limits by 'ipcs -l'
[1631719747.768720] [comp0810:223612:0]            sys.c:618  UCX  ERROR shmget(size=2097152 flags=0xfb0) for mm_recv_desc failed: Operation not permitted, please check shared memory limits by 'ipcs -l'
[1631719747.768504] [comp0810:223615:0]            sys.c:618  UCX  ERROR shmget(size=2097152 flags=0xfb0) for mm_recv_desc failed: Operation not permitted, please check shared memory limits by 'ipcs -l'
[1631719747.768653] [comp0810:223618:0]            sys.c:618  UCX  ERROR shmget(size=2097152 flags=0xfb0) for mm_recv_desc failed: Operation not permitted, please check shared memory limits by 'ipcs -l'
[1631719747.789489] [comp0810:223611:0]            sys.c:618  UCX  ERROR shmget(size=2097152 flags=0xb80) for ucp_am_bufs failed: Operation not permitted, please check shared memory limits by 'ipcs -l'
[1631719747.789489] [comp0810:223615:0]            sys.c:618  UCX  ERROR shmget(size=2097152 flags=0xb80) for ucp_am_bufs failed: Operation not permitted, please check shared memory limits by 'ipcs -l'
[1631719747.814007] [comp0810:223618:0]            sys.c:618  UCX  ERROR shmget(size=2097152 flags=0xb80) for ucp_am_bufs failed: Operation not permitted, please check shared memory limits by 'ipcs -l'
[1631719747.814007] [comp0810:223612:0]            sys.c:618  UCX  ERROR shmget(size=2097152 flags=0xb80) for ucp_am_bufs failed: Operation not permitted, please check shared memory limits by 'ipcs -l'


           ************************************************************
           *        Program running with 4 parallel MPI-processes     *
           *              working on a common directory               *
           ************************************************************
------------------------------------------------------------------------------
                           ORCA GTO INTEGRAL CALCULATION
                           -- RI-GTO INTEGRALS CHOSEN --
------------------------------------------------------------------------------

                         BASIS SET STATISTICS AND STARTUP INFO

Gaussian basis set:
 # of primitive gaussian shells          ...  119
 # of primitive gaussian functions       ...  231
 # of contracted shells                  ...   59
 # of contracted basis functions         ...  127
 Highest angular momentum                ...    2
 Maximum contraction depth               ...    6
Auxiliary gaussian basis set:
 # of primitive gaussian shells          ...  188
 # of primitive gaussian functions       ...  488
 # of contracted shells                  ...  115
 # of contracted aux-basis functions     ...  333
 Highest angular momentum                ...    4
 Maximum contraction depth               ...   12
Ratio of auxiliary to basis functions    ...  2.62
Integral package used                  ... LIBINT
 One Electron integrals                  ... done
 Ordering auxiliary basis shells         ... done
 Integral threshhold             Thresh  ...  2.500e-11
 Primitive cut-off               TCut    ...  2.500e-12
 Pre-screening matrix                    ... done
 Shell pair data                         ... 
 Ordering of the shell pairs             ... done (   0.000 sec) 1660 of 1770 pairs
 Determination of significant pairs      ... done (   0.000 sec)
 Creation of shell pair data             ... done (   0.000 sec)
 Storage of shell pair data              ... done (   0.001 sec)
 Shell pair data done in (   0.002 sec)
 Computing two index integrals           ... done
 Cholesky decomposition of the V-matrix  ... done


Timings:
 Total evaluation time                   ...   0.317 sec (  0.005 min)
 One electron matrix time                ...   0.010 sec (  0.000 min) =  3.2%
 Schwartz matrix evaluation time         ...   0.110 sec (  0.002 min) = 34.7%
 Two index repulsion integral time       ...   0.003 sec (  0.000 min) =  1.1%
 Cholesky decomposition of V             ...   0.175 sec (  0.003 min) = 55.3%
 Three index repulsion integral time     ...   0.000 sec (  0.000 min) =  0.0%

[1631719750.095390] [comp0810:223661:0]            sys.c:618  UCX  ERROR shmget(size=2097152 flags=0xfb0) for mm_recv_desc failed: Operation not permitted, please check shared memory limits by 'ipcs -l'
[1631719750.100573] [comp0810:223656:0]            sys.c:618  UCX  ERROR shmget(size=2097152 flags=0xfb0) for mm_recv_desc failed: Operation not permitted, please check shared memory limits by 'ipcs -l'
[1631719750.101030] [comp0810:223663:0]            sys.c:618  UCX  ERROR shmget(size=2097152 flags=0xfb0) for mm_recv_desc failed: Operation not permitted, please check shared memory limits by 'ipcs -l'
[1631719750.106620] [comp0810:223659:0]            sys.c:618  UCX  ERROR shmget(size=2097152 flags=0xfb0) for mm_recv_desc failed: Operation not permitted, please check shared memory limits by 'ipcs -l'
[1631719750.120220] [comp0810:223656:0]            sys.c:618  UCX  ERROR shmget(size=2097152 flags=0xb80) for ucp_am_bufs failed: Operation not permitted, please check shared memory limits by 'ipcs -l'


           ************************************************************
           *        Program running with 4 parallel MPI-processes     *
           *              working on a common directory               *
           ************************************************************
[1631719750.119727] [comp0810:223659:0]            sys.c:618  UCX  ERROR shmget(size=2097152 flags=0xb80) for ucp_am_bufs failed: Operation not permitted, please check shared memory limits by 'ipcs -l'
[1631719750.121985] [comp0810:223661:0]            sys.c:618  UCX  ERROR shmget(size=2097152 flags=0xb80) for ucp_am_bufs failed: Operation not permitted, please check shared memory limits by 'ipcs -l'
[1631719750.122434] [comp0810:223663:0]            sys.c:618  UCX  ERROR shmget(size=2097152 flags=0xb80) for ucp_am_bufs failed: Operation not permitted, please check shared memory limits by 'ipcs -l'
-------------------------------------------------------------------------------
                                 ORCA SCF
-------------------------------------------------------------------------------

------------
SCF SETTINGS
------------
Hamiltonian:
 Density Functional     Method          .... DFT(GTOs)
 Exchange Functional    Exchange        .... PBE
   PBE kappa parameter   XKappa         ....  0.804000
   PBE mue parameter    XMuePBE         ....  0.219520
 Correlation Functional Correlation     .... PBE
   PBE beta parameter  CBetaPBE         ....  0.066725
 LDA part of GGA corr.  LDAOpt          .... PW91-LDA
 Gradients option       PostSCFGGA      .... off
 Hybrid DFT is turned on
   Fraction HF Exchange ScalHFX         ....  0.250000
   Scaling of DF-GGA-X  ScalDFX         ....  0.750000
   Scaling of DF-GGA-C  ScalDFC         ....  1.000000
   Scaling of DF-LDA-C  ScalLDAC        ....  1.000000
   Perturbative correction              ....  0.000000
   Density functional embedding theory  .... OFF
   NL short-range parameter             ....  6.900000
 RI-approximation to the Coulomb term is turned on
   Number of auxiliary basis functions  .... 333
   RIJ-COSX (HFX calculated with COS-X)).... on


General Settings:
 Integral files         IntName         .... manual_reactants_339_opt
 Hartree-Fock type      HFTyp           .... RHF
 Total Charge           Charge          ....   -1
 Multiplicity           Mult            ....    1
 Number of Electrons    NEL             ....   78
 Basis Dimension        Dim             ....  127
 Nuclear Repulsion      ENuc            ....    370.9690138972 Eh

Convergence Acceleration:
 DIIS                   CNVDIIS         .... on
   Start iteration      DIISMaxIt       ....    12
   Startup error        DIISStart       ....  0.200000
   # of expansion vecs  DIISMaxEq       ....     5
   Bias factor          DIISBfac        ....   1.050
   Max. coefficient     DIISMaxC        ....  10.000
 Newton-Raphson         CNVNR           .... off
 SOSCF                  CNVSOSCF        .... on
   Start iteration      SOSCFMaxIt      ....   150
   Startup grad/error   SOSCFStart      ....  0.003300
 Level Shifting         CNVShift        .... on
   Level shift para.    LevelShift      ....    0.2500
   Turn off err/grad.   ShiftErr        ....    0.0010
 Zerner damping         CNVZerner       .... off
 Static damping         CNVDamp         .... on
   Fraction old density DampFac         ....    0.7000
   Max. Damping (<1)    DampMax         ....    0.9800
   Min. Damping (>=0)   DampMin         ....    0.0000
   Turn off err/grad.   DampErr         ....    0.1000
 Fernandez-Rico         CNVRico         .... off

SCF Procedure:
 Maximum # iterations   MaxIter         ....   250
 SCF integral mode      SCFMode         .... Direct
   Integral package                     .... LIBINT
 Reset frequency        DirectResetFreq ....    20
 Integral Threshold     Thresh          ....  2.500e-11 Eh
 Primitive CutOff       TCut            ....  2.500e-12 Eh

Convergence Tolerance:
 Convergence Check Mode ConvCheckMode   .... Total+1el-Energy
 Convergence forced     ConvForced      .... 0
 Energy Change          TolE            ....  1.000e-08 Eh
 1-El. energy change                    ....  1.000e-05 Eh
 Orbital Gradient       TolG            ....  1.000e-05
 Orbital Rotation angle TolX            ....  1.000e-05
 DIIS Error             TolErr          ....  5.000e-07


Diagonalization of the overlap matrix:
Smallest eigenvalue                        ... 2.576e-03
Time for diagonalization                   ...    0.173 sec
Threshold for overlap eigenvalues          ... 1.000e-08
Number of eigenvalues below threshold      ... 0
Time for construction of square roots      ...    0.001 sec
Total time needed                          ...    0.174 sec

-------------------
DFT GRID GENERATION
-------------------

General Integration Accuracy     IntAcc      ...  4.340
Radial Grid Type                 RadialGrid  ... Gauss-Chebyshev
Angular Grid (max. acc.)         AngularGrid ... Lebedev-110
Angular grid pruning method      GridPruning ... 3 (G Style)
Weight generation scheme         WeightScheme... Becke
Basis function cutoff            BFCut       ...    1.0000e-11
Integration weight cutoff        WCut        ...    1.0000e-14
Grids for H and He will be reduced by one unit

# of grid points (after initial pruning)     ...  15260 (   0.0 sec)
# of grid points (after weights+screening)   ...  14448 (   0.0 sec)
nearest neighbour list constructed           ...    0.0 sec
Grid point re-assignment to atoms done       ...    0.0 sec
Grid point division into batches done        ...    0.0 sec
Reduced shell lists constructed in    0.0 sec

Total number of grid points                  ...    14448
Total number of batches                      ...      231
Average number of points per batch           ...       62
Average number of grid points per atom       ...     1204
Average number of shells per batch           ...    44.68 (75.73%)
Average number of basis functions per batch  ...    95.69 (75.35%)
Average number of large shells per batch     ...    37.64 (84.26%)
Average number of large basis fcns per batch ...    78.59 (82.13%)
Maximum spatial batch extension              ...  15.75, 15.28, 22.78 au
Average spatial batch extension              ...   0.73,  0.73,  0.80 au

Time for grid setup =    0.043 sec

------------------------------
INITIAL GUESS: MODEL POTENTIAL
------------------------------
Loading Hartree-Fock densities                     ... done
Calculating cut-offs                               ... done
Setting up the integral package                    ... done
Initializing the effective Hamiltonian             ... done
Starting the Coulomb interaction                   ... done (   0.0 sec)
Reading the grid                                   ... done
Mapping shells                                     ... done
Starting the XC term evaluation                    ... done (   0.0 sec)
  promolecular density results
     # of electrons  =     77.002718477
     EX              =   -134.009400726
     EC              =     -3.171965717
     EX+EC           =   -137.181366443
Transforming the Hamiltonian                       ... done (   0.0 sec)
Diagonalizing the Hamiltonian                      ... done (   0.0 sec)
Back transforming the eigenvectors                 ... done (   0.0 sec)
Now organizing SCF variables                       ... done
                      ------------------
                      INITIAL GUESS DONE (   0.2 sec)
                      ------------------
--------------------
COSX GRID GENERATION
--------------------

General Integration Accuracy     IntAcc      ...  3.340
Radial Grid Type                 RadialGrid  ... Gauss-Chebyshev
Angular Grid (max. acc.)         AngularGrid ... Lebedev-50
Angular grid pruning method      GridPruning ... 3 (G Style)
Weight generation scheme         WeightScheme... Becke
Basis function cutoff            BFCut       ...    1.0000e-11
Integration weight cutoff        WCut        ...    1.0000e-14
Grids for H and He will be reduced by one unit

# of grid points (after initial pruning)     ...   5728 (   0.0 sec)
# of grid points (after weights+screening)   ...   5408 (   0.0 sec)
nearest neighbour list constructed           ...    0.0 sec
Grid point re-assignment to atoms done       ...    0.0 sec
Grid point division into batches done        ...    0.0 sec
Reduced shell lists constructed in    0.0 sec

Total number of grid points                  ...     5408
Total number of batches                      ...       90
Average number of points per batch           ...       60
Average number of grid points per atom       ...      451
Average number of shells per batch           ...    46.00 (77.97%)
Average number of basis functions per batch  ...    99.25 (78.15%)
Average number of large shells per batch     ...    39.38 (85.60%)
Average number of large basis fcns per batch ...    81.71 (82.33%)
Maximum spatial batch extension              ...  13.37, 14.83, 19.83 au
Average spatial batch extension              ...   0.95,  0.99,  1.11 au

Overlap Fitting                  UseSFitting ... on
Constructing numerical overlap ... done (      0.0 sec)
Inverting numerical overlap    ... done (      0.0 sec)
Obtaining analytic overlap     ... done (      0.0 sec)
Final contraction and storage  ... done (      0.0 sec)


General Integration Accuracy     IntAcc      ...  3.670
Radial Grid Type                 RadialGrid  ... Gauss-Chebyshev
Angular Grid (max. acc.)         AngularGrid ... Lebedev-50
Angular grid pruning method      GridPruning ... 3 (G Style)
Weight generation scheme         WeightScheme... Becke
Basis function cutoff            BFCut       ...    1.0000e-11
Integration weight cutoff        WCut        ...    1.0000e-14
Grids for H and He will be reduced by one unit

# of grid points (after initial pruning)     ...   7222 (   0.0 sec)
# of grid points (after weights+screening)   ...   6806 (   0.0 sec)
nearest neighbour list constructed           ...    0.0 sec
Grid point re-assignment to atoms done       ...    0.0 sec
Grid point division into batches done        ...    0.0 sec
Reduced shell lists constructed in    0.0 sec

Total number of grid points                  ...     6806
Total number of batches                      ...      112
Average number of points per batch           ...       60
Average number of grid points per atom       ...      567
Average number of shells per batch           ...    46.48 (78.78%)
Average number of basis functions per batch  ...   100.48 (79.12%)
Average number of large shells per batch     ...    39.62 (85.24%)
Average number of large basis fcns per batch ...    82.10 (81.71%)
Maximum spatial batch extension              ...  15.02, 15.55, 16.62 au
Average spatial batch extension              ...   0.79,  0.80,  0.85 au

Overlap Fitting                  UseSFitting ... on
Constructing numerical overlap ... done (      0.0 sec)
Inverting numerical overlap    ... done (      0.0 sec)
Obtaining analytic overlap     ... done (      0.0 sec)
Final contraction and storage  ... done (      0.0 sec)


General Integration Accuracy     IntAcc      ...  4.010
Radial Grid Type                 RadialGrid  ... Gauss-Chebyshev
Angular Grid (max. acc.)         AngularGrid ... Lebedev-110
Angular grid pruning method      GridPruning ... 3 (G Style)
Weight generation scheme         WeightScheme... Becke
Basis function cutoff            BFCut       ...    1.0000e-11
Integration weight cutoff        WCut        ...    1.0000e-14
Grids for H and He will be reduced by one unit

# of grid points (after initial pruning)     ...  13318 (   0.0 sec)
# of grid points (after weights+screening)   ...  12623 (   0.0 sec)
nearest neighbour list constructed           ...    0.0 sec
Grid point re-assignment to atoms done       ...    0.0 sec
Grid point division into batches done        ...    0.0 sec
Reduced shell lists constructed in    0.0 sec

Total number of grid points                  ...    12623
Total number of batches                      ...      203
Average number of points per batch           ...       62
Average number of grid points per atom       ...     1052
Average number of shells per batch           ...    45.69 (77.44%)
Average number of basis functions per batch  ...    98.19 (77.32%)
Average number of large shells per batch     ...    38.52 (84.30%)
Average number of large basis fcns per batch ...    80.48 (81.96%)
Maximum spatial batch extension              ...  13.17, 13.42, 16.45 au
Average spatial batch extension              ...   0.66,  0.67,  0.71 au

Overlap Fitting                  UseSFitting ... on
Constructing numerical overlap ... done (      0.0 sec)
Inverting numerical overlap    ... done (      0.0 sec)
Obtaining analytic overlap     ... done (      0.0 sec)
Final contraction and storage  ... done (      0.0 sec)

Time for X-Grid setup             =    0.152 sec

--------------------
CPCM SOLVATION MODEL
--------------------
CPCM parameters:
  Epsilon                                         ...      20.7000
  Refrac                                          ...       1.3590
  Rsolv                                           ...       1.3000
  Surface type                                    ...    GEPOL SES
  Epsilon function type                           ...         CPCM
Radii:
 Radius for C  used is    3.7795 Bohr (=   2.0000 Ang.)
 Radius for Br used is    4.0818 Bohr (=   2.1600 Ang.)
 Radius for H  used is    2.4566 Bohr (=   1.3000 Ang.)
 Radius for Cl used is    3.8739 Bohr (=   2.0500 Ang.)
Calculating surface                               ...        done! (  0.0s)
GEPOL surface points                              ...          509
GEPOL Volume                                      ...     969.5223
GEPOL Surface-area                                ...     561.7145
Calculating surface distance matrix               ...        done! (  0.0s)
Performing Cholesky decomposition & store         ...        done! (  0.0s)
Overall time for CPCM initialization              ...                 0.0s
--------------
SCF ITERATIONS
--------------
ITER       Energy         Delta-E        Max-DP      RMS-DP      [F,P]     Damp
               ***  Starting incremental Fock matrix formation  ***
  0  -3151.7636059699   0.000000000000 0.10826491  0.00259632  0.1571187 0.7000
  1  -3151.8315681815  -0.067962211571 0.07598558  0.00195955  0.0921675 0.7000
                               ***Turning on DIIS***
  2  -3151.8622336305  -0.030665449075 0.13684043  0.00377735  0.0492259 0.0000
  3  -3151.9064586596  -0.044225029067 0.04129914  0.00114917  0.0444074 0.0000
  4  -3151.9171123705  -0.010653710932 0.01925195  0.00040261  0.0109650 0.0000
                      *** Initiating the SOSCF procedure ***
                           *** Shutting down DIIS ***
                      *** Re-Reading the Fockian *** 
                      *** Removing any level shift *** 
ITER      Energy       Delta-E        Grad      Rot      Max-DP    RMS-DP
  5  -3151.91763613  -0.0005237573  0.000705  0.000705  0.002373  0.000100
               *** Restarting incremental Fock matrix formation ***
  6  -3151.91766047  -0.0000243408  0.000342  0.000638  0.001395  0.000066
  7  -3151.91766178  -0.0000013074  0.000235  0.000170  0.000697  0.000017
  8  -3151.91766359  -0.0000018113  0.000027  0.000025  0.000156  0.000004
  9  -3151.91766357   0.0000000130  0.000023  0.000021  0.000059  0.000002
 10  -3151.91766360  -0.0000000229  0.000004  0.000008  0.000020  0.000001
 11  -3151.91766360  -0.0000000072  0.000004  0.000003  0.000013  0.000000
                  ***Gradient check signals convergence***
              ***Rediagonalizing the Fockian in SOSCF/NRSCF***

               *****************************************************
               *                     SUCCESS                       *
               *           SCF CONVERGED AFTER  12 CYCLES          *
               *****************************************************

Setting up the final grid:

General Integration Accuracy     IntAcc      ...  4.670
Radial Grid Type                 RadialGrid  ... Gauss-Chebyshev
Angular Grid (max. acc.)         AngularGrid ... Lebedev-302
Angular grid pruning method      GridPruning ... 3 (G Style)
Weight generation scheme         WeightScheme... Becke
Basis function cutoff            BFCut       ...    1.0000e-11
Integration weight cutoff        WCut        ...    1.0000e-14
Grids for H and He will be reduced by one unit

# of grid points (after initial pruning)     ...  58748 (   0.0 sec)
# of grid points (after weights+screening)   ...  55018 (   0.0 sec)
nearest neighbour list constructed           ...    0.0 sec
Grid point re-assignment to atoms done       ...    0.0 sec
Grid point division into batches done        ...    0.2 sec
Reduced shell lists constructed in    0.3 sec

Total number of grid points                  ...    55018
Total number of batches                      ...      866
Average number of points per batch           ...       63
Average number of grid points per atom       ...     4585
Average number of shells per batch           ...    42.62 (72.24%)
Average number of basis functions per batch  ...    90.69 (71.41%)
Average number of large shells per batch     ...    35.65 (83.65%)
Average number of large basis fcns per batch ...    73.81 (81.38%)
Maximum spatial batch extension              ...  15.25, 13.54, 15.15 au
Average spatial batch extension              ...   0.51,  0.48,  0.52 au

Final grid set up in    0.3 sec
Final integration                            ... done (   0.1 sec)
Change in XC energy                          ...     0.000038565
Integrated number of electrons               ...    78.000109997
Previous integrated no of electrons          ...    78.002734641
Old exchange energy                            =    -33.855138235 Eh
New exchange energy                            =    -33.855052517 Eh
Exchange energy change after final integration =      0.000085718 Eh
Total energy after final integration           =  -3151.917539291 Eh
Final COS-X integration done in                =     0.653 sec

----------------
TOTAL SCF ENERGY
----------------

Total Energy       :        -3151.91753929 Eh          -85768.03661 eV

Components:
Nuclear Repulsion  :          370.96901390 Eh           10094.58007 eV
Electronic Energy  :        -3522.88655319 Eh          -95862.61667 eV
One Electron Energy:        -5129.46024349 Eh         -139579.70932 eV
Two Electron Energy:         1606.57369030 Eh           43717.09265 eV
CPCM Dielectric    :           -0.09940321 Eh              -2.70490 eV

Virial components:
Potential Energy   :        -6299.07210830 Eh         -171406.46620 eV
Kinetic Energy     :         3147.15456901 Eh           85638.42960 eV
Virial Ratio       :            2.00151342


DFT components:
N(Alpha)           :       39.000054998395 electrons
N(Beta)            :       39.000054998395 electrons
N(Total)           :       78.000109996789 electrons
E(X)               :     -101.076955900090 Eh       
E(C)               :       -3.223853839898 Eh       
E(XC)              :     -104.300809739988 Eh       
DFET-embed. en.    :        0.000000000000 Eh       
CPCM Solvation Model Properties:
Surface-charge          :            0.97949266
Charge-correction       :           -0.00302313 Eh              -0.08226 eV
Free-energy (cav+disp)  :            0.00380064 Eh               0.10342 eV
Corrected G(solv)       :        -3151.91676178 Eh          -85768.01545 eV

---------------
SCF CONVERGENCE
---------------

  Last Energy change         ...    3.0635e-08  Tolerance :   1.0000e-08
  Last MAX-Density change    ...    2.5813e-15  Tolerance :   1.0000e-07
  Last RMS-Density change    ...    8.8353e-17  Tolerance :   5.0000e-09
  Last Orbital Gradient      ...    1.7867e-07  Tolerance :   1.0000e-05
  Last Orbital Rotation      ...    4.2135e-07  Tolerance :   1.0000e-05

             **** THE GBW FILE WAS UPDATED (manual_reactants_339_opt.gbw) ****
             **** DENSITY FILE WAS UPDATED (manual_reactants_339_opt.scfp) ****
             **** ENERGY FILE WAS UPDATED (manual_reactants_339_opt.en.tmp) ****
             **** THE GBW FILE WAS UPDATED (manual_reactants_339_opt.gbw) ****
             **** DENSITY FILE WAS UPDATED (manual_reactants_339_opt.scfp) ****
----------------
ORBITAL ENERGIES
----------------

  NO   OCC          E(Eh)            E(eV) 
   0   2.0000    -483.165099    -13147.5908 
   1   2.0000    -101.518282     -2762.4529 
   2   2.0000     -62.601419     -1703.4712 
   3   2.0000     -56.390518     -1534.4640 
   4   2.0000     -56.388414     -1534.4068 
   5   2.0000     -56.388253     -1534.4024 
   6   2.0000     -10.277258      -279.6584 
   7   2.0000     -10.217407      -278.0298 
   8   2.0000     -10.215675      -277.9826 
   9   2.0000      -9.365475      -254.8475 
  10   2.0000      -8.746631      -238.0079 
  11   2.0000      -7.101198      -193.2334 
  12   2.0000      -7.101163      -193.2325 
  13   2.0000      -7.101101      -193.2308 
  14   2.0000      -6.560301      -178.5149 
  15   2.0000      -6.549109      -178.2103 
  16   2.0000      -6.549055      -178.2088 
  17   2.0000      -2.646014       -72.0017 
  18   2.0000      -2.642865       -71.9160 
  19   2.0000      -2.642767       -71.9133 
  20   2.0000      -2.633741       -71.6677 
  21   2.0000      -2.633729       -71.6674 
  22   2.0000      -0.833842       -22.6900 
  23   2.0000      -0.739201       -20.1147 
  24   2.0000      -0.692699       -18.8493 
  25   2.0000      -0.667199       -18.1554 
  26   2.0000      -0.572454       -15.5773 
  27   2.0000      -0.467458       -12.7202 
  28   2.0000      -0.446243       -12.1429 
  29   2.0000      -0.417247       -11.3539 
  30   2.0000      -0.388455       -10.5704 
  31   2.0000      -0.356083        -9.6895 
  32   2.0000      -0.355272        -9.6674 
  33   2.0000      -0.331224        -9.0131 
  34   2.0000      -0.278687        -7.5835 
  35   2.0000      -0.278582        -7.5806 
  36   2.0000      -0.210576        -5.7301 
  37   2.0000      -0.209809        -5.7092 
  38   2.0000      -0.207780        -5.6540 
  39   0.0000       0.022061         0.6003 
  40   0.0000       0.100021         2.7217 
  41   0.0000       0.128177         3.4879 
  42   0.0000       0.134211         3.6521 
  43   0.0000       0.158138         4.3031 
  44   0.0000       0.175131         4.7656 
  45   0.0000       0.180062         4.8997 
  46   0.0000       0.192404         5.2356 
  47   0.0000       0.218705         5.9513 
  48   0.0000       0.250574         6.8185 
  49   0.0000       0.336452         9.1553 
  50   0.0000       0.411097        11.1865 
  51   0.0000       0.414105        11.2684 
  52   0.0000       0.431470        11.7409 
  53   0.0000       0.440836        11.9958 
  54   0.0000       0.484747        13.1906 
  55   0.0000       0.543853        14.7990 
  56   0.0000       0.553859        15.0713 
  57   0.0000       0.566476        15.4146 
  58   0.0000       0.587759        15.9937 
  59   0.0000       0.597183        16.2502 
  60   0.0000       0.622842        16.9484 
  61   0.0000       0.646490        17.5919 
  62   0.0000       0.662723        18.0336 
  63   0.0000       0.692239        18.8368 
  64   0.0000       0.693617        18.8743 
  65   0.0000       0.696283        18.9468 
  66   0.0000       0.698932        19.0189 
  67   0.0000       0.702403        19.1134 
  68   0.0000       0.710846        19.3431 
  69   0.0000       0.718367        19.5478 
  70   0.0000       0.731713        19.9109 
  71   0.0000       0.751232        20.4421 
  72   0.0000       0.775865        21.1124 
  73   0.0000       0.811828        22.0910 
  74   0.0000       0.853293        23.2193 
  75   0.0000       0.925625        25.1875 
  76   0.0000       0.926103        25.2005 
  77   0.0000       0.930471        25.3194 
  78   0.0000       0.939070        25.5534 
  79   0.0000       0.944034        25.6885 
  80   0.0000       1.034897        28.1610 
  81   0.0000       1.046145        28.4671 
  82   0.0000       1.050237        28.5784 
  83   0.0000       1.068788        29.0832 
  84   0.0000       1.086671        29.5698 
  85   0.0000       1.156219        31.4623 
  86   0.0000       1.176998        32.0277 
  87   0.0000       1.233441        33.5636 
  88   0.0000       1.317107        35.8403 
  89   0.0000       1.521432        41.4003 
  90   0.0000       1.552505        42.2458 
  91   0.0000       1.555470        42.3265 
  92   0.0000       1.561490        42.4903 
  93   0.0000       1.634847        44.4865 
  94   0.0000       1.761098        47.9219 
  95   0.0000       1.771385        48.2018 
  96   0.0000       1.795008        48.8447 
  97   0.0000       1.817450        49.4553 
  98   0.0000       1.832323        49.8601 
  99   0.0000       1.854770        50.4709 
 100   0.0000       1.875587        51.0373 
 101   0.0000       1.892943        51.5096 
 102   0.0000       1.949949        53.0608 
 103   0.0000       1.973349        53.6975 
 104   0.0000       2.047366        55.7116 
 105   0.0000       2.164808        58.9074 
 106   0.0000       2.170951        59.0746 
 107   0.0000       2.269820        61.7650 
 108   0.0000       2.274304        61.8870 
 109   0.0000       2.395480        65.1843 
 110   0.0000       2.408296        65.5331 
 111   0.0000       2.509967        68.2997 
 112   0.0000       2.591868        70.5283 
 113   0.0000       2.604775        70.8795 
 114   0.0000       2.616820        71.2073 
 115   0.0000       2.758864        75.0725 
 116   0.0000       2.877712        78.3065 
 117   0.0000       2.931618        79.7734 
 118   0.0000       2.934455        79.8506 
 119   0.0000       3.006692        81.8162 
 120   0.0000       3.025304        82.3227 
 121   0.0000       3.069686        83.5304 
 122   0.0000       3.494594        95.0927 
 123   0.0000       3.508440        95.4695 
 124   0.0000       3.605760        98.1177 
 125   0.0000       3.619492        98.4914 
 126   0.0000       3.833530       104.3157 

                    ********************************
                    * MULLIKEN POPULATION ANALYSIS *
                    ********************************

-----------------------
MULLIKEN ATOMIC CHARGES
-----------------------
   0 C :   -0.029698
   1 C :   -0.205743
   2 C :   -0.024498
   3 Br:   -0.223170
   4 H :    0.053351
   5 H :    0.048423
   6 H :    0.040002
   7 H :    0.071536
   8 H :    0.050506
   9 H :    0.036538
  10 H :    0.046367
  11 Cl:   -0.863614
Sum of atomic charges:   -1.0000000

--------------------------------
MULLIKEN REDUCED ORBITAL CHARGES
--------------------------------
  0 C s       :     3.022466  s :     3.022466
      pz      :     1.010616  p :     2.980423
      px      :     0.942570
      py      :     1.027236
      dz2     :     0.004149  d :     0.026809
      dxz     :     0.006215
      dyz     :     0.006378
      dx2y2   :     0.004005
      dxy     :     0.006062
  1 C s       :     3.224010  s :     3.224010
      pz      :     1.010235  p :     2.935302
      px      :     0.966461
      py      :     0.958606
      dz2     :     0.006929  d :     0.046431
      dxz     :     0.009015
      dyz     :     0.010395
      dx2y2   :     0.008683
      dxy     :     0.011408
  2 C s       :     3.020171  s :     3.020171
      pz      :     1.012635  p :     2.977631
      px      :     1.008066
      py      :     0.956930
      dz2     :     0.003055  d :     0.026696
      dxz     :     0.006174
      dyz     :     0.006804
      dx2y2   :     0.004399
      dxy     :     0.006264
  3 Brs       :     7.968453  s :     7.968453
      pz      :     5.783390  p :    17.217784
      px      :     5.749669
      py      :     5.684726
      dz2     :     2.004990  d :    10.036933
      dxz     :     2.008255
      dyz     :     2.008731
      dx2y2   :     2.005117
      dxy     :     2.009840
  4 H s       :     0.922919  s :     0.922919
      pz      :     0.005402  p :     0.023730
      px      :     0.006333
      py      :     0.011995
  5 H s       :     0.928066  s :     0.928066
      pz      :     0.011796  p :     0.023512
      px      :     0.004216
      py      :     0.007500
  6 H s       :     0.934793  s :     0.934793
      pz      :     0.009775  p :     0.025205
      px      :     0.007695
      py      :     0.007735
  7 H s       :     0.906564  s :     0.906564
      pz      :     0.012559  p :     0.021900
      px      :     0.003825
      py      :     0.005516
  8 H s       :     0.925755  s :     0.925755
      pz      :     0.007312  p :     0.023740
      px      :     0.011896
      py      :     0.004532
  9 H s       :     0.937678  s :     0.937678
      pz      :     0.009573  p :     0.025784
      px      :     0.008996
      py      :     0.007214
 10 H s       :     0.930126  s :     0.930126
      pz      :     0.011608  p :     0.023507
      px      :     0.005265
      py      :     0.006634
 11 Cls       :     5.993229  s :     5.993229
      pz      :     3.936478  p :    11.870166
      px      :     3.963712
      py      :     3.969976
      dz2     :     0.000059  d :     0.000218
      dxz     :     0.000080
      dyz     :     0.000034
      dx2y2   :     0.000018
      dxy     :     0.000027


                     *******************************
                     * LOEWDIN POPULATION ANALYSIS *
                     *******************************

----------------------
LOEWDIN ATOMIC CHARGES
----------------------
   0 C :   -0.085081
   1 C :   -0.068324
   2 C :   -0.086098
   3 Br:   -0.071406
   4 H :    0.031424
   5 H :    0.029687
   6 H :    0.026356
   7 H :    0.021935
   8 H :    0.030874
   9 H :    0.022634
  10 H :    0.028265
  11 Cl:   -0.880266

-------------------------------
LOEWDIN REDUCED ORBITAL CHARGES
-------------------------------
  0 C s       :     2.849331  s :     2.849331
      pz      :     1.058528  p :     3.164527
      px      :     1.030840
      py      :     1.075160
      dz2     :     0.010351  d :     0.071222
      dxz     :     0.017167
      dyz     :     0.016495
      dx2y2   :     0.011249
      dxy     :     0.015960
  1 C s       :     2.913500  s :     2.913500
      pz      :     1.033958  p :     3.052421
      px      :     1.009484
      py      :     1.008980
      dz2     :     0.015398  d :     0.102404
      dxz     :     0.020590
      dyz     :     0.022435
      dx2y2   :     0.018483
      dxy     :     0.025497
  2 C s       :     2.849722  s :     2.849722
      pz      :     1.070498  p :     3.165297
      px      :     1.055498
      py      :     1.039301
      dz2     :     0.008240  d :     0.071079
      dxz     :     0.016174
      dyz     :     0.017711
      dx2y2   :     0.011576
      dxy     :     0.017378
  3 Brs       :     7.838015  s :     7.838015
      pz      :     5.773973  p :    17.184681
      px      :     5.735300
      py      :     5.675408
      dz2     :     2.006302  d :    10.048710
      dxz     :     2.010652
      dyz     :     2.011583
      dx2y2   :     2.006617
      dxy     :     2.013555
  4 H s       :     0.901886  s :     0.901886
      pz      :     0.014074  p :     0.066690
      px      :     0.019316
      py      :     0.033299
  5 H s       :     0.903675  s :     0.903675
      pz      :     0.033030  p :     0.066638
      px      :     0.013002
      py      :     0.020605
  6 H s       :     0.902709  s :     0.902709
      pz      :     0.026427  p :     0.070935
      px      :     0.023188
      py      :     0.021320
  7 H s       :     0.904159  s :     0.904159
      pz      :     0.040338  p :     0.073907
      px      :     0.014787
      py      :     0.018782
  8 H s       :     0.902522  s :     0.902522
      pz      :     0.019812  p :     0.066604
      px      :     0.033098
      py      :     0.013693
  9 H s       :     0.904820  s :     0.904820
      pz      :     0.025971  p :     0.072547
      px      :     0.024627
      py      :     0.021948
 10 H s       :     0.905032  s :     0.905032
      pz      :     0.032364  p :     0.066702
      px      :     0.014048
      py      :     0.020290
 11 Cls       :     5.990556  s :     5.990556
      pz      :     3.944046  p :    11.889493
      px      :     3.968752
      py      :     3.976694
      dz2     :     0.000059  d :     0.000217
      dxz     :     0.000071
      dyz     :     0.000037
      dx2y2   :     0.000017
      dxy     :     0.000034


                      *****************************
                      * MAYER POPULATION ANALYSIS *
                      *****************************

  NA   - Mulliken gross atomic population
  ZA   - Total nuclear charge
  QA   - Mulliken gross atomic charge
  VA   - Mayer's total valence
  BVA  - Mayer's bonded valence
  FA   - Mayer's free valence

  ATOM       NA         ZA         QA         VA         BVA        FA
  0 C      6.0297     6.0000    -0.0297     3.8690     3.8690     0.0000
  1 C      6.2057     6.0000    -0.2057     4.0168     4.0168    -0.0000
  2 C      6.0245     6.0000    -0.0245     3.8599     3.8599    -0.0000
  3 Br    35.2232    35.0000    -0.2232     0.9878     0.9878    -0.0000
  4 H      0.9466     1.0000     0.0534     0.9913     0.9913     0.0000
  5 H      0.9516     1.0000     0.0484     0.9945     0.9945     0.0000
  6 H      0.9600     1.0000     0.0400     1.0633     1.0633     0.0000
  7 H      0.9285     1.0000     0.0715     1.0235     1.0235     0.0000
  8 H      0.9495     1.0000     0.0505     0.9916     0.9916    -0.0000
  9 H      0.9635     1.0000     0.0365     1.0742     1.0742    -0.0000
 10 H      0.9536     1.0000     0.0464     0.9941     0.9941    -0.0000
 11 Cl    17.8636    17.0000    -0.8636     0.2669     0.2669    -0.0000

  Mayer bond orders larger than 0.100000
B(  0-C ,  1-C ) :   1.0499 B(  0-C ,  4-H ) :   0.9639 B(  0-C ,  5-H ) :   0.9646 
B(  0-C ,  6-H ) :   0.9354 B(  1-C ,  2-C ) :   1.0447 B(  1-C ,  3-Br) :   0.9480 
B(  1-C ,  7-H ) :   0.9158 B(  2-C ,  8-H ) :   0.9650 B(  2-C ,  9-H ) :   0.9318 
B(  2-C , 10-H ) :   0.9629 B(  9-H , 11-Cl) :   0.1114 


------------------
HIRSHFELD ANALYSIS
------------------

Total integrated alpha density =     39.001367320
Total integrated beta density  =     39.001367320

  ATOM     CHARGE      SPIN    
   0 C   -0.084585    0.000000
   1 C    0.046055    0.000000
   2 C   -0.086283    0.000000
   3 Br  -0.193202    0.000000
   4 H    0.028153    0.000000
   5 H    0.026751    0.000000
   6 H    0.022231    0.000000
   7 H    0.026490    0.000000
   8 H    0.027243    0.000000
   9 H    0.018253    0.000000
  10 H    0.025345    0.000000
  11 Cl  -0.859187    0.000000

  TOTAL  -1.002735    0.000000

-------
TIMINGS
-------

Total SCF time: 0 days 0 hours 0 min 9 sec 

Total time                  ....       9.826 sec
Sum of individual times     ....       9.519 sec  ( 96.9%)

Fock matrix formation       ....       8.846 sec  ( 90.0%)
  Split-RI-J                ....       1.380 sec  ( 15.6% of F)
  Chain of spheres X        ....       4.468 sec  ( 50.5% of F)
  COS-X 1 center corr.      ....       0.000 sec  (  0.0% of F)
  XC integration            ....       0.516 sec  (  5.8% of F)
    Basis function eval.    ....       0.204 sec  ( 39.5% of XC)
    Density eval.           ....       0.090 sec  ( 17.4% of XC)
    XC-Functional eval.     ....       0.051 sec  (  9.8% of XC)
    XC-Potential eval.      ....       0.130 sec  ( 25.2% of XC)
Diagonalization             ....       0.012 sec  (  0.1%)
Density matrix formation    ....       0.003 sec  (  0.0%)
Population analysis         ....       0.037 sec  (  0.4%)
Initial guess               ....       0.121 sec  (  1.2%)
Orbital Transformation      ....       0.000 sec  (  0.0%)
Orbital Orthonormalization  ....       0.000 sec  (  0.0%)
DIIS solution               ....       0.003 sec  (  0.0%)
SOSCF solution              ....       0.008 sec  (  0.1%)
Grid generation             ....       0.489 sec  (  5.0%)


-------------------------------------------------------------------------------
                          DFT DISPERSION CORRECTION                            
                                                                               
                              DFTD3 V3.1  Rev 1                                
                          USING Becke-Johnson damping                          
-------------------------------------------------------------------------------
The PBE0 functional is recognized
Active option DFTDOPT                   ...         4   

molecular C6(AA) [au] = 2272.395227 


            DFT-D V3
 parameters
 s6 scaling factor         :     1.0000 
 a1 scaling factor         :     0.4145 
 s8 scaling factor         :     1.2177 
 a2 scaling factor         :     4.8593 
 ad hoc parameters k1-k3   :    16.0000     1.3333    -4.0000 

 Edisp/kcal,au: -5.830969181947  -0.009292239880 
 E6   /kcal   :  -3.540721153 
 E8   /kcal   :  -2.290248029 
 % E8         :  39.277313206 

-------------------------   ----------------
Dispersion correction           -0.009292240
-------------------------   ----------------


-------------------------   --------------------
FINAL SINGLE POINT ENERGY     -3151.926831530861
-------------------------   --------------------

[1631719761.701855] [comp0810:223710:0]            sys.c:618  UCX  ERROR shmget(size=2097152 flags=0xfb0) for mm_recv_desc failed: Operation not permitted, please check shared memory limits by 'ipcs -l'
[1631719761.702007] [comp0810:223712:0]            sys.c:618  UCX  ERROR shmget(size=2097152 flags=0xfb0) for mm_recv_desc failed: Operation not permitted, please check shared memory limits by 'ipcs -l'
[1631719761.710819] [comp0810:223713:0]            sys.c:618  UCX  ERROR shmget(size=2097152 flags=0xfb0) for mm_recv_desc failed: Operation not permitted, please check shared memory limits by 'ipcs -l'
[1631719761.717732] [comp0810:223711:0]            sys.c:618  UCX  ERROR shmget(size=2097152 flags=0xfb0) for mm_recv_desc failed: Operation not permitted, please check shared memory limits by 'ipcs -l'
[1631719761.727033] [comp0810:223713:0]            sys.c:618  UCX  ERROR shmget(size=2097152 flags=0xb80) for ucp_am_bufs failed: Operation not permitted, please check shared memory limits by 'ipcs -l'
[1631719761.727430] [comp0810:223712:0]            sys.c:618  UCX  ERROR shmget(size=2097152 flags=0xb80) for ucp_am_bufs failed: Operation not permitted, please check shared memory limits by 'ipcs -l'
[1631719761.727746] [comp0810:223711:0]            sys.c:618  UCX  ERROR shmget(size=2097152 flags=0xb80) for ucp_am_bufs failed: Operation not permitted, please check shared memory limits by 'ipcs -l'
[1631719761.727442] [comp0810:223710:0]            sys.c:618  UCX  ERROR shmget(size=2097152 flags=0xb80) for ucp_am_bufs failed: Operation not permitted, please check shared memory limits by 'ipcs -l'


           ************************************************************
           *        Program running with 4 parallel MPI-processes     *
           *              working on a common directory               *
           ************************************************************
------------------------------------------------------------------------------
                         ORCA SCF GRADIENT CALCULATION
------------------------------------------------------------------------------

Gradient of the Kohn-Sham DFT energy:
Kohn-Sham wavefunction type      ... RKS
Hartree-Fock exchange scaling    ...    0.250
Number of operators              ...    1
Number of atoms                  ...   12
Basis set dimensions             ...  127
Integral neglect threshold       ... 2.5e-11
Integral primitive cutoff        ... 2.5e-12

Nuclear repulsion gradient       ... done
One Electron Gradient            ... done
Pre-screening matrix             ... done
RI-J gradient                    ... done
COSX-gradient                    ... done
Exchange-correlation gradient    ... done
Dispersion correction            ... done

------------------
CARTESIAN GRADIENT
------------------

   1   C   :   -0.000129787    0.000238955   -0.000245767
   2   C   :   -0.000597468    0.000383387   -0.000645888
   3   C   :   -0.000127821   -0.000096170   -0.000115196
   4   Br  :    0.000027370   -0.000096335    0.000181478
   5   H   :   -0.000111900    0.000185194    0.000028112
   6   H   :   -0.000203798    0.000262005   -0.000086785
   7   H   :   -0.000134029    0.000144041   -0.000865893
   8   H   :   -0.000421589    0.000282375   -0.000343276
   9   H   :   -0.000010677   -0.000034512   -0.000033585
  10   H   :   -0.000238220   -0.000440174   -0.000620610
  11   H   :   -0.000050307    0.000100005   -0.000114364
  12   Cl  :    0.000826752   -0.000072933    0.001553763

Difference to translation invariance:
           :   -0.0011714747    0.0008558372   -0.0013080100

Norm of the cartesian gradient     ...    0.0024966229
RMS gradient                       ...    0.0004161038
MAX gradient                       ...    0.0015537632

-------
TIMINGS
-------

Total SCF gradient time            ...        2.050 sec

One electron gradient       ....       0.018 sec  (  0.9%)
Prescreening matrices       ....       0.102 sec  (  5.0%)
RI-J Coulomb gradient       ....       0.176 sec  (  8.6%)
COSX gradient               ....       0.645 sec  ( 31.4%)
XC gradient                 ....       0.453 sec  ( 22.1%)
CPCM gradient               ....       0.200 sec  (  9.7%)
   A-Matrix (El+Nuc)        ....       0.006 sec  (  0.3%)
   Potential                ....       0.194 sec  (  9.5%)
------------------------------------------------------------------------------
                         ORCA GEOMETRY RELAXATION STEP
------------------------------------------------------------------------------

Reading the OPT-File                    .... done
Getting information on internals        .... done
Copying old internal coords+grads       .... done
Making the new internal coordinates     .... (new redundants).... done
Validating the new internal coordinates .... (new redundants).... done
Calculating the B-matrix                .... done
Calculating the G,G- and P matrices     .... done
Transforming gradient to internals      .... done
Projecting the internal gradient        .... done
Number of atoms                         ....  12
Number of internal coordinates          ....  75
Current Energy                          .... -3151.926831531 Eh
Current gradient norm                   ....     0.002496623 Eh/bohr
Maximum allowed component of the step   ....  0.300
Current trust radius                    ....  0.300
Evaluating the initial hessian          ....  (Almloef) done
Projecting the Hessian                  .... done
Forming the augmented Hessian           .... done
Diagonalizing the augmented Hessian     .... done
Last element of RFO vector              ....  0.868143071
Lowest eigenvalues of augmented Hessian:
 -0.000534992  0.001585044  0.011110252  0.014149985  0.020547391
Length of the computed step             ....  0.571696115
Warning: the length of the step is outside the trust region - taking restricted step instead
The input lambda is                     ....    -0.000535
   iter:   1  x=   -0.001116  g=  407.887401 f(x)=     0.236836
   iter:   2  x=   -0.001651  g=  161.107609 f(x)=     0.086208
   iter:   3  x=   -0.001936  g=   83.426831 f(x)=     0.023800
   iter:   4  x=   -0.001989  g=   61.837497 f(x)=     0.003284
   iter:   5  x=   -0.001991  g=   58.669781 f(x)=     0.000085
   iter:   6  x=   -0.001991  g=   58.586335 f(x)=     0.000000
   iter:   7  x=   -0.001991  g=   58.586276 f(x)=     0.000000
The output lambda is                    ....    -0.001991 (7 iterations)
The final length of the internal step   ....  0.300000000
Converting the step to cartesian space:
 Initial RMS(Int)=    0.0346410162
Transforming coordinates:
 Iter   0:  RMS(Cart)=    0.0234333287 RMS(Int)=    0.0345626361
 Iter   1:  RMS(Cart)=    0.0001122924 RMS(Int)=    0.0000968947
 Iter   2:  RMS(Cart)=    0.0000004157 RMS(Int)=    0.0000003571
 Iter   3:  RMS(Cart)=    0.0000000057 RMS(Int)=    0.0000000049
done
Storing new coordinates                 .... done

                                .--------------------.
          ----------------------|Geometry convergence|-------------------------
          Item                value                   Tolerance       Converged
          ---------------------------------------------------------------------
          RMS gradient        0.0001385995            0.0001000000      NO
          MAX gradient        0.0006275533            0.0003000000      NO
          RMS step            0.0346410162            0.0020000000      NO
          MAX step            0.1420044266            0.0040000000      NO
          ........................................................
          Max(Bonds)      0.0751      Max(Angles)    0.51
          Max(Dihed)        0.47      Max(Improp)    0.00
          ---------------------------------------------------------------------

The optimization has not yet converged - more geometry cycles are needed


    ---------------------------------------------------------------------------
                         Redundant Internal Coordinates
                            (Angstroem and degrees)

        Definition                    Value    dE/dq     Step     New-Value
    ----------------------------------------------------------------------------
     1. B(C   1,C   0)                1.5092 -0.000044 -0.0001    1.5091   
     2. B(C   2,C   1)                1.5098  0.000111 -0.0005    1.5093   
     3. B(Br  3,C   1)                1.9930 -0.000323  0.0007    1.9937   
     4. B(H   4,C   0)                1.0994 -0.000014  0.0000    1.0994   
     5. B(H   5,C   0)                1.1009 -0.000064  0.0001    1.1010   
     6. B(H   6,C   0)                1.1020 -0.000043  0.0003    1.1023   
     7. B(H   7,C   1)                1.0974 -0.000048  0.0001    1.0975   
     8. B(H   8,C   2)                1.0995  0.000004 -0.0000    1.0995   
     9. B(H   9,C   2)                1.1024  0.000132 -0.0002    1.1022   
    10. B(H  10,C   2)                1.1009 -0.000054  0.0001    1.1010   
    11. B(Cl 11,H   7)                2.9615  0.000342 -0.0691    2.8924   
    12. B(Cl 11,H   6)                2.9152  0.000628 -0.0672    2.8481   
    13. B(Cl 11,C   2)                3.5987  0.000269 -0.0729    3.5259   
    14. B(Cl 11,H   9)                2.7863  0.000462 -0.0692    2.7171   
    15. B(Cl 11,C   1)                3.5162  0.000393 -0.0751    3.4411   
    16. A(C   1,C   0,H   5)          111.49 -0.000141    0.04    111.53   
    17. A(C   1,C   0,H   4)          111.80  0.000088   -0.02    111.78   
    18. A(H   4,C   0,H   5)          108.85  0.000059   -0.01    108.84   
    19. A(H   5,C   0,H   6)          109.63  0.000021    0.03    109.66   
    20. A(C   1,C   0,H   6)          106.57 -0.000009   -0.05    106.52   
    21. A(H   4,C   0,H   6)          108.42 -0.000017    0.00    108.42   
    22. A(C   2,C   1,Cl 11)           80.83 -0.000043   -0.17     80.66   
    23. A(C   0,C   1,C   2)          113.90 -0.000128    0.03    113.93   
    24. A(Br  3,C   1,Cl 11)          155.14 -0.000088    0.17    155.31   
    25. A(H   7,C   1,Cl 11)           51.57 -0.000027    0.16     51.72   
    26. A(C   0,C   1,H   7)          109.89  0.000111   -0.07    109.82   
    27. A(Br  3,C   1,H   7)          103.73 -0.000065    0.02    103.75   
    28. A(C   0,C   1,Cl 11)           85.16  0.000068   -0.11     85.04   
    29. A(C   0,C   1,Br  3)          109.37 -0.000011    0.07    109.45   
    30. A(C   2,C   1,Br  3)          109.57  0.000121   -0.01    109.57   
    31. A(C   2,C   1,H   7)          109.88 -0.000021   -0.05    109.84   
    32. A(H   8,C   2,H   9)          107.95  0.000000   -0.06    107.89   
    33. A(C   1,C   2,H   9)          106.46  0.000181   -0.10    106.36   
    34. A(H  10,C   2,Cl 11)          139.55  0.000072   -0.08    139.48   
    35. A(H   9,C   2,Cl 11)           36.20  0.000180    0.10     36.30   
    36. A(H   8,C   2,Cl 11)          104.69 -0.000076    0.20    104.89   
    37. A(C   1,C   2,Cl 11)           74.71  0.000046   -0.34     74.37   
    38. A(H   9,C   2,H  10)          110.03 -0.000104    0.07    110.09   
    39. A(H   8,C   2,H  10)          108.85  0.000037    0.03    108.88   
    40. A(C   1,C   2,H  10)          111.72 -0.000056    0.06    111.78   
    41. A(C   1,C   2,H   8)          111.75 -0.000059   -0.00    111.75   
    42. A(C   1,Cl 11,C   2)           24.47 -0.000003    0.51     24.97   
    43. D(C   2,C   1,C   0,H   6)    -65.14  0.000101   -0.15    -65.30   
    44. D(Br  3,C   1,C   0,H   4)     53.59  0.000020   -0.18     53.40   
    45. D(Cl 11,C   1,C   0,H   6)     12.58  0.000109   -0.40     12.18   
    46. D(Cl 11,C   1,C   0,H   4)   -105.71  0.000086   -0.36   -106.07   
    47. D(C   2,C   1,C   0,H   4)    176.56  0.000079   -0.11    176.45   
    48. D(C   2,C   1,C   0,H   5)     54.45  0.000041   -0.12     54.33   
    49. D(H   7,C   1,C   0,H   5)    178.22  0.000006   -0.21    178.01   
    50. D(Br  3,C   1,C   0,H   6)    171.88  0.000043   -0.22    171.66   
    51. D(Cl 11,C   1,C   0,H   5)    132.18  0.000049   -0.36    131.81   
    52. D(Br  3,C   1,C   0,H   5)    -68.52 -0.000017   -0.19    -68.71   
    53. D(H   7,C   1,C   0,H   4)    -59.67  0.000043   -0.21    -59.88   
    54. D(H   7,C   1,C   0,H   6)     58.63  0.000066   -0.25     58.38   
    55. D(H   8,C   2,C   1,H   7)     56.73 -0.000005   -0.01     56.73   
    56. D(H   8,C   2,C   1,Br  3)    -56.63  0.000018   -0.00    -56.63   
    57. D(H   8,C   2,C   1,C   0)   -179.49  0.000032   -0.11   -179.60   
    58. D(Cl 11,C   2,C   1,C   0)     80.50  0.000086   -0.21     80.28   
    59. D(H  10,C   2,C   1,Cl 11)   -137.76 -0.000089    0.18   -137.58   
    60. D(H  10,C   2,C   1,Br  3)     65.60 -0.000017    0.08     65.68   
    61. D(H  10,C   2,C   1,C   0)    -57.26 -0.000003   -0.04    -57.30   
    62. D(H   9,C   2,C   1,Cl 11)    -17.62 -0.000132    0.23    -17.39   
    63. D(H   9,C   2,C   1,H   7)    -60.90 -0.000083    0.12    -60.78   
    64. D(H  10,C   2,C   1,H   7)    178.96 -0.000039    0.07    179.03   
    65. D(H   9,C   2,C   1,Br  3)   -174.26 -0.000061    0.13   -174.13   
    66. D(H   9,C   2,C   1,C   0)     62.88 -0.000047    0.02     62.89   
    67. D(Cl 11,C   2,C   1,Br  3)   -156.64  0.000072   -0.10   -156.74   
    68. D(Cl 11,C   2,C   1,H   7)    -43.28  0.000049   -0.11    -43.39   
    69. D(H   8,C   2,C   1,Cl 11)    100.01 -0.000054    0.10    100.11   
    70. D(C   1,Cl 11,C   2,H   8)   -108.99  0.000038    0.10   -108.89   
    71. D(C   2,Cl 11,C   1,H   7)    124.61  0.000034   -0.01    124.60   
    72. D(C   2,Cl 11,C   1,Br  3)    117.30  0.000126   -0.26    117.05   
    73. D(C   2,Cl 11,C   1,C   0)   -115.19  0.000139   -0.08   -115.27   
    74. D(C   1,Cl 11,C   2,H  10)    105.70 -0.000030   -0.30    105.40   
    75. D(C   1,Cl 11,C   2,H   9)    150.56 -0.000066    0.47    151.03   
    ----------------------------------------------------------------------------

         *************************************************************
         *                GEOMETRY OPTIMIZATION CYCLE   2            *
         *************************************************************
---------------------------------
CARTESIAN COORDINATES (ANGSTROEM)
---------------------------------
  C      1.403503   -0.510914   -0.818711
  C      0.122852   -0.246182   -0.065595
  C     -0.676666   -1.489635    0.238435
  Br    -1.002140    1.035097   -1.098881
  H      1.925745    0.421683   -1.076078
  H      1.218774   -1.081477   -1.742040
  H      2.048767   -1.096534   -0.143587
  H      0.343037    0.291845    0.865301
  H     -1.603990   -1.255287    0.780740
  H     -0.047049   -2.110261    0.896736
  H     -0.930384   -2.046251   -0.677021
  Cl     1.859101   -1.368254    2.685203

----------------------------
CARTESIAN COORDINATES (A.U.)
----------------------------
  NO LB      ZA    FRAG     MASS         X           Y           Z
   0 C     6.0000    0    12.011    2.652236   -0.965488   -1.547140
   1 C     6.0000    0    12.011    0.232156   -0.465217   -0.123957
   2 C     6.0000    0    12.011   -1.278714   -2.815002    0.450577
   3 Br   35.0000    0    79.900   -1.893769    1.956051   -2.076585
   4 H     1.0000    0     1.008    3.639130    0.796865   -2.033493
   5 H     1.0000    0     1.008    2.303148   -2.043695   -3.291979
   6 H     1.0000    0     1.008    3.871609   -2.072149   -0.271339
   7 H     1.0000    0     1.008    0.648246    0.551507    1.635181
   8 H     1.0000    0     1.008   -3.031103   -2.372149    1.475384
   9 H     1.0000    0     1.008   -0.088909   -3.987814    1.694586
  10 H     1.0000    0     1.008   -1.758170   -3.866855   -1.279385
  11 Cl   17.0000    0    35.453    3.513192   -2.585626    5.074298

--------------------------------
INTERNAL COORDINATES (ANGSTROEM)
--------------------------------
 C      0   0   0     0.000000000000     0.00000000     0.00000000
 C      1   0   0     1.509083820324     0.00000000     0.00000000
 C      2   1   0     1.509251206949   113.92604242     0.00000000
 Br     2   1   3     1.993730752116   109.44761794   236.95604147
 H      1   2   3     1.099414217021   111.78543917   176.44871510
 H      1   2   3     1.101000997193   111.53349519    54.33389519
 H      1   2   3     1.102319968983   106.51745719   294.70610687
 H      2   1   3     1.097507251026   109.81828245   123.67418323
 H      3   2   1     1.099519907453   111.74875111   180.39185916
 H      3   2   1     1.102249722082   106.35607832    62.89070545
 H      3   2   1     1.101024268913   111.78296081   302.70120930
 Cl    10   3   2     2.717092923504   129.79783370    29.07956520

---------------------------
INTERNAL COORDINATES (A.U.)
---------------------------
 C      0   0   0     0.000000000000     0.00000000     0.00000000
 C      1   0   0     2.851755133545     0.00000000     0.00000000
 C      2   1   0     2.852071448424   113.92604242     0.00000000
 Br     2   1   3     3.767605106276   109.44761794   236.95604147
 H      1   2   3     2.077591777908   111.78543917   176.44871510
 H      1   2   3     2.080590357869   111.53349519    54.33389519
[...]
  27   2.0000      -0.466323       -12.6893 
  28   2.0000      -0.446987       -12.1631 
  29   2.0000      -0.416445       -11.3320 
  30   2.0000      -0.385191       -10.4816 
  31   2.0000      -0.356225        -9.6934 
  32   2.0000      -0.355815        -9.6822 
  33   2.0000      -0.330831        -9.0024 
  34   2.0000      -0.279114        -7.5951 
  35   2.0000      -0.278925        -7.5899 
  36   2.0000      -0.212656        -5.7867 
  37   2.0000      -0.212144        -5.7727 
  38   2.0000      -0.209148        -5.6912 
  39   0.0000       0.019022         0.5176 
  40   0.0000       0.100486         2.7344 
  41   0.0000       0.125923         3.4265 
  42   0.0000       0.135070         3.6754 
  43   0.0000       0.155337         4.2269 
  44   0.0000       0.180227         4.9042 
  45   0.0000       0.195275         5.3137 
  46   0.0000       0.205015         5.5787 
  47   0.0000       0.217014         5.9053 
  48   0.0000       0.249981         6.8023 
  49   0.0000       0.338749         9.2178 
  50   0.0000       0.411512        11.1978 
  51   0.0000       0.413293        11.2463 
  52   0.0000       0.433321        11.7913 
  53   0.0000       0.441092        12.0027 
  54   0.0000       0.489869        13.3300 
  55   0.0000       0.542283        14.7563 
  56   0.0000       0.553393        15.0586 
  57   0.0000       0.572449        15.5771 
  58   0.0000       0.587643        15.9906 
  59   0.0000       0.595990        16.2177 
  60   0.0000       0.614711        16.7271 
  61   0.0000       0.645902        17.5759 
  62   0.0000       0.659998        17.9595 
  63   0.0000       0.684273        18.6200 
  64   0.0000       0.690053        18.7773 
  65   0.0000       0.693102        18.8603 
  66   0.0000       0.703351        19.1392 
  67   0.0000       0.706316        19.2198 
  68   0.0000       0.717856        19.5339 
  69   0.0000       0.719716        19.5845 
  70   0.0000       0.732766        19.9396 
  71   0.0000       0.772925        21.0324 
  72   0.0000       0.792205        21.5570 
  73   0.0000       0.819279        22.2937 
  74   0.0000       0.847611        23.0647 
  75   0.0000       0.923175        25.1209 
  76   0.0000       0.923443        25.1282 
  77   0.0000       0.925495        25.1840 
  78   0.0000       0.943243        25.6669 
  79   0.0000       0.950577        25.8665 
  80   0.0000       1.001922        27.2637 
  81   0.0000       1.042021        28.3548 
  82   0.0000       1.058326        28.7985 
  83   0.0000       1.091926        29.7128 
  84   0.0000       1.119279        30.4571 
  85   0.0000       1.176249        32.0074 
  86   0.0000       1.187602        32.3163 
  87   0.0000       1.241071        33.7712 
  88   0.0000       1.315810        35.8050 
  89   0.0000       1.523451        41.4552 
  90   0.0000       1.550190        42.1828 
  91   0.0000       1.554789        42.3080 
  92   0.0000       1.561287        42.4848 
  93   0.0000       1.633241        44.4428 
  94   0.0000       1.761602        47.9356 
  95   0.0000       1.778069        48.3837 
  96   0.0000       1.793749        48.8104 
  97   0.0000       1.818916        49.4952 
  98   0.0000       1.833281        49.8861 
  99   0.0000       1.855427        50.4887 
 100   0.0000       1.866233        50.7828 
 101   0.0000       1.891444        51.4688 
 102   0.0000       1.924092        52.3572 
 103   0.0000       1.969763        53.6000 
 104   0.0000       2.040330        55.5202 
 105   0.0000       2.168473        59.0072 
 106   0.0000       2.170662        59.0667 
 107   0.0000       2.268908        61.7401 
 108   0.0000       2.278357        61.9973 
 109   0.0000       2.393676        65.1352 
 110   0.0000       2.409614        65.5689 
 111   0.0000       2.493228        67.8442 
 112   0.0000       2.590105        70.4803 
 113   0.0000       2.606601        70.9292 
 114   0.0000       2.625200        71.4353 
 115   0.0000       2.760346        75.1128 
 116   0.0000       2.880603        78.3852 
 117   0.0000       2.927587        79.6637 
 118   0.0000       2.935733        79.8854 
 119   0.0000       3.007960        81.8507 
 120   0.0000       3.031317        82.4863 
 121   0.0000       3.060204        83.2724 
 122   0.0000       3.495147        95.1078 
 123   0.0000       3.507571        95.4459 
 124   0.0000       3.603414        98.0539 
 125   0.0000       3.619179        98.4829 
 126   0.0000       3.832808       104.2960 

                    ********************************
                    * MULLIKEN POPULATION ANALYSIS *
                    ********************************

-----------------------
MULLIKEN ATOMIC CHARGES
-----------------------
   0 C :   -0.033787
   1 C :   -0.233740
   2 C :   -0.027457
   3 Br:   -0.223087
   4 H :    0.049678
   5 H :    0.047565
   6 H :    0.029877
   7 H :    0.100192
   8 H :    0.050244
   9 H :    0.029245
  10 H :    0.050683
  11 Cl:   -0.839415
Sum of atomic charges:   -1.0000000

--------------------------------
MULLIKEN REDUCED ORBITAL CHARGES
--------------------------------
  0 C s       :     3.020904  s :     3.020904
      pz      :     1.031482  p :     2.986586
      px      :     0.933074
      py      :     1.022030
      dz2     :     0.003465  d :     0.026297
      dxz     :     0.005459
      dyz     :     0.006992
      dx2y2   :     0.005030
      dxy     :     0.005352
  1 C s       :     3.242611  s :     3.242611
      pz      :     0.954410  p :     2.944386
      px      :     0.982457
      py      :     1.007519
      dz2     :     0.005848  d :     0.046743
      dxz     :     0.009168
      dyz     :     0.012095
      dx2y2   :     0.009498
      dxy     :     0.010134
  2 C s       :     3.019420  s :     3.019420
      pz      :     1.021035  p :     2.981635
      px      :     1.008324
      py      :     0.952277
      dz2     :     0.002653  d :     0.026402
      dxz     :     0.005626
      dyz     :     0.007400
      dx2y2   :     0.005465
      dxy     :     0.005258
  3 Brs       :     7.968835  s :     7.968835
      pz      :     5.659581  p :    17.217842
      px      :     5.767611
      py      :     5.790650
      dz2     :     2.006453  d :    10.036411
      dxz     :     2.010322
      dyz     :     2.009138
      dx2y2   :     2.003903
      dxy     :     2.006595
  4 H s       :     0.926748  s :     0.926748
      pz      :     0.005795  p :     0.023574
      px      :     0.006031
      py      :     0.011748
  5 H s       :     0.928859  s :     0.928859
      pz      :     0.011001  p :     0.023576
      px      :     0.003920
      py      :     0.008655
  6 H s       :     0.943127  s :     0.943127
      pz      :     0.012552  p :     0.026995
      px      :     0.007001
      py      :     0.007442
  7 H s       :     0.878461  s :     0.878461
      pz      :     0.009981  p :     0.021346
      px      :     0.003196
      py      :     0.008169
  8 H s       :     0.926209  s :     0.926209
      pz      :     0.006485  p :     0.023546
      px      :     0.012523
      py      :     0.004538
  9 H s       :     0.944241  s :     0.944241
      pz      :     0.010336  p :     0.026514
      px      :     0.009786
      py      :     0.006392
 10 H s       :     0.925746  s :     0.925746
      pz      :     0.010633  p :     0.023571
      px      :     0.005008
      py      :     0.007930
 11 Cls       :     5.989622  s :     5.989622
      pz      :     3.927639  p :    11.849400
      px      :     3.940523
      py      :     3.981238
      dz2     :     0.000123  d :     0.000393
      dxz     :     0.000089
      dyz     :     0.000105
      dx2y2   :     0.000068
      dxy     :     0.000007


                     *******************************
                     * LOEWDIN POPULATION ANALYSIS *
                     *******************************

----------------------
LOEWDIN ATOMIC CHARGES
----------------------
   0 C :   -0.093499
   1 C :   -0.065567
   2 C :   -0.089509
   3 Br:   -0.075582
   4 H :    0.028890
   5 H :    0.029337
   6 H :    0.012275
   7 H :    0.037326
   8 H :    0.030291
   9 H :    0.016770
  10 H :    0.030449
  11 Cl:   -0.861182

-------------------------------
LOEWDIN REDUCED ORBITAL CHARGES
-------------------------------
  0 C s       :     2.851421  s :     2.851421
      pz      :     1.073139  p :     3.171722
      px      :     1.026082
      py      :     1.072501
      dz2     :     0.008969  d :     0.070356
      dxz     :     0.014796
      dyz     :     0.018283
      dx2y2   :     0.014276
      dxy     :     0.014032
  1 C s       :     2.913512  s :     2.913512
      pz      :     0.987177  p :     3.049155
      px      :     1.018298
      py      :     1.043680
      dz2     :     0.012579  d :     0.102900
      dxz     :     0.019802
      dyz     :     0.027193
      dx2y2   :     0.021173
      dxy     :     0.022154
  2 C s       :     2.850620  s :     2.850620
      pz      :     1.075796  p :     3.168378
      px      :     1.057131
      py      :     1.035451
      dz2     :     0.006841  d :     0.070511
      dxz     :     0.014875
      dyz     :     0.019841
      dx2y2   :     0.014311
      dxy     :     0.014644
  3 Brs       :     7.840678  s :     7.840678
      pz      :     5.656830  p :    17.187226
      px      :     5.751963
      py      :     5.778433
      dz2     :     2.007803  d :    10.047677
      dxz     :     2.013489
      dyz     :     2.012339
      dx2y2   :     2.004945
      dxy     :     2.009101
  4 H s       :     0.904122  s :     0.904122
      pz      :     0.015400  p :     0.066988
      px      :     0.018856
      py      :     0.032732
  5 H s       :     0.903783  s :     0.903783
      pz      :     0.030557  p :     0.066880
      px      :     0.012451
      py      :     0.023872
  6 H s       :     0.909128  s :     0.909128
      pz      :     0.036096  p :     0.078596
      px      :     0.022034
      py      :     0.020466
  7 H s       :     0.891649  s :     0.891649
      pz      :     0.032536  p :     0.071025
      px      :     0.012986
      py      :     0.025504
  8 H s       :     0.902983  s :     0.902983
      pz      :     0.017939  p :     0.066726
      px      :     0.035150
      py      :     0.013637
  9 H s       :     0.907780  s :     0.907780
      pz      :     0.029533  p :     0.075450
      px      :     0.026746
      py      :     0.019171
 10 H s       :     0.902698  s :     0.902698
      pz      :     0.029731  p :     0.066852
      px      :     0.013131
      py      :     0.023991
 11 Cls       :     5.985073  s :     5.985073
      pz      :     3.938374  p :    11.875690
      px      :     3.953055
      py      :     3.984261
      dz2     :     0.000136  d :     0.000419
      dxz     :     0.000090
      dyz     :     0.000108
      dx2y2   :     0.000079
      dxy     :     0.000006


                      *****************************
                      * MAYER POPULATION ANALYSIS *
                      *****************************

  NA   - Mulliken gross atomic population
  ZA   - Total nuclear charge
  QA   - Mulliken gross atomic charge
  VA   - Mayer's total valence
  BVA  - Mayer's bonded valence
  FA   - Mayer's free valence

  ATOM       NA         ZA         QA         VA         BVA        FA
  0 C      6.0338     6.0000    -0.0338     3.8295     3.8295    -0.0000
  1 C      6.2337     6.0000    -0.2337     4.0512     4.0512     0.0000
  2 C      6.0275     6.0000    -0.0275     3.8377     3.8377    -0.0000
  3 Br    35.2231    35.0000    -0.2231     0.9879     0.9879    -0.0000
  4 H      0.9503     1.0000     0.0497     0.9904     0.9904    -0.0000
  5 H      0.9524     1.0000     0.0476     0.9951     0.9951    -0.0000
  6 H      0.9701     1.0000     0.0299     1.1158     1.1158    -0.0000
  7 H      0.8998     1.0000     0.1002     0.9596     0.9596     0.0000
  8 H      0.9498     1.0000     0.0502     0.9898     0.9898    -0.0000
  9 H      0.9708     1.0000     0.0292     1.1036     1.1036    -0.0000
 10 H      0.9493     1.0000     0.0507     0.9950     0.9950     0.0000
 11 Cl    17.8394    17.0000    -0.8394     0.3106     0.3106     0.0000

  Mayer bond orders larger than 0.100000
B(  0-C ,  1-C ) :   1.0488 B(  0-C ,  4-H ) :   0.9624 B(  0-C ,  5-H ) :   0.9645 
B(  0-C ,  6-H ) :   0.9079 B(  1-C ,  2-C ) :   1.0474 B(  1-C ,  3-Br) :   0.9504 
B(  1-C ,  7-H ) :   0.9323 B(  2-C ,  8-H ) :   0.9629 B(  2-C ,  9-H ) :   0.9168 
B(  2-C , 10-H ) :   0.9637 B(  6-H , 11-Cl) :   0.1758 B(  9-H , 11-Cl) :   0.1549 



------------------
HIRSHFELD ANALYSIS
------------------

Total integrated alpha density =     39.003332688
Total integrated beta density  =     39.003332688

  ATOM     CHARGE      SPIN    
   0 C   -0.091873    0.000000
   1 C    0.049595    0.000000
   2 C   -0.088159    0.000000
   3 Br  -0.195674    0.000000
   4 H    0.025460    0.000000
   5 H    0.024946    0.000000
   6 H    0.009842    0.000000
   7 H    0.039625    0.000000
   8 H    0.026805    0.000000
   9 H    0.013179    0.000000
  10 H    0.026971    0.000000
  11 Cl  -0.847383    0.000000

  TOTAL  -1.006665    0.000000

-------
TIMINGS
-------

Total SCF time: 0 days 0 hours 0 min 4 sec 

Total time                  ....       4.904 sec
Sum of individual times     ....       4.596 sec  ( 93.7%)

Fock matrix formation       ....       4.057 sec  ( 82.7%)
  Split-RI-J                ....       0.627 sec  ( 15.5% of F)
  Chain of spheres X        ....       2.122 sec  ( 52.3% of F)
  COS-X 1 center corr.      ....       0.000 sec  (  0.0% of F)
  XC integration            ....       0.235 sec  (  5.8% of F)
    Basis function eval.    ....       0.095 sec  ( 40.4% of XC)
    Density eval.           ....       0.041 sec  ( 17.6% of XC)
    XC-Functional eval.     ....       0.023 sec  (  9.9% of XC)
    XC-Potential eval.      ....       0.059 sec  ( 24.9% of XC)
Diagonalization             ....       0.002 sec  (  0.0%)
Density matrix formation    ....       0.001 sec  (  0.0%)
Population analysis         ....       0.031 sec  (  0.6%)
Initial guess               ....       0.004 sec  (  0.1%)
Orbital Transformation      ....       0.000 sec  (  0.0%)
Orbital Orthonormalization  ....       0.002 sec  (  0.0%)
DIIS solution               ....       0.000 sec  (  0.0%)
SOSCF solution              ....       0.004 sec  (  0.1%)
Grid generation             ....       0.497 sec  ( 10.1%)


-------------------------------------------------------------------------------
                          DFT DISPERSION CORRECTION                            
                                                                               
                              DFTD3 V3.1  Rev 1                                
                          USING Becke-Johnson damping                          
-------------------------------------------------------------------------------
The PBE0 functional is recognized
Active option DFTDOPT                   ...         4   

molecular C6(AA) [au] = 2272.397979 


            DFT-D V3
 parameters
 s6 scaling factor         :     1.0000 
 a1 scaling factor         :     0.4145 
 s8 scaling factor         :     1.2177 
 a2 scaling factor         :     4.8593 
 ad hoc parameters k1-k3   :    16.0000     1.3333    -4.0000 

 Edisp/kcal,au: -5.733800805517  -0.009137392232 
 E6   /kcal   :  -3.491564181 
 E8   /kcal   :  -2.242236624 
 % E8         :  39.105589820 

-------------------------   ----------------
Dispersion correction           -0.009137392
-------------------------   ----------------


-------------------------   --------------------
FINAL SINGLE POINT ENERGY     -3151.927376439294
-------------------------   --------------------

                                *** OPTIMIZATION RUN DONE ***

                            ***************************************
                            *     ORCA property calculations      *
                            ***************************************

                                    ---------------------
                                    Active property flags
                                    ---------------------
   (+) Dipole Moment


------------------------------------------------------------------------------
                       ORCA ELECTRIC PROPERTIES CALCULATION
------------------------------------------------------------------------------

Dipole Moment Calculation                       ... on
Quadrupole Moment Calculation                   ... off
Polarizability Calculation                      ... off
GBWName                                         ... manual_reactants_339_opt.gbw
Electron density file                           ... manual_reactants_339_opt.scfp
The origin for moment calculation is the CENTER OF MASS  = ( 0.087526, -0.413554 -0.460815)

-------------
DIPOLE MOMENT
-------------
                                X             Y             Z
Electronic contribution:    -12.57303      14.44776     -12.42475
Nuclear contribution   :      9.48063     -11.93762       8.78957
                        -----------------------------------------
Total Dipole Moment    :     -3.09240       2.51014      -3.63518
                        -----------------------------------------
Magnitude (a.u.)       :      5.39243
Magnitude (Debye)      :     13.70646



--------------------
Rotational spectrum 
--------------------
 
Rotational constants in cm-1:     0.238877     0.019489     0.018658 
Rotational constants in MHz :  7161.342861   584.265942   559.350211 

 Dipole components along the rotational axes: 
x,y,z [a.u.] :     5.386096    -0.071470     0.251280 
x,y,z [Debye]:    13.690368    -0.181663     0.638703 

 
[1631720194.332925] [comp0810:227051:0]            sys.c:618  UCX  ERROR shmget(size=2097152 flags=0xfb0) for mm_recv_desc failed: Operation not permitted, please check shared memory limits by 'ipcs -l'
[1631720194.333122] [comp0810:227052:0]            sys.c:618  UCX  ERROR shmget(size=2097152 flags=0xfb0) for mm_recv_desc failed: Operation not permitted, please check shared memory limits by 'ipcs -l'
[1631720194.334151] [comp0810:227053:0]            sys.c:618  UCX  ERROR shmget(size=2097152 flags=0xfb0) for mm_recv_desc failed: Operation not permitted, please check shared memory limits by 'ipcs -l'
[1631720194.332577] [comp0810:227054:0]            sys.c:618  UCX  ERROR shmget(size=2097152 flags=0xfb0) for mm_recv_desc failed: Operation not permitted, please check shared memory limits by 'ipcs -l'
[1631720194.346226] [comp0810:227051:0]            sys.c:618  UCX  ERROR shmget(size=2097152 flags=0xb80) for ucp_am_bufs failed: Operation not permitted, please check shared memory limits by 'ipcs -l'
[1631720194.351034] [comp0810:227052:0]            sys.c:618  UCX  ERROR shmget(size=2097152 flags=0xb80) for ucp_am_bufs failed: Operation not permitted, please check shared memory limits by 'ipcs -l'
[1631720194.346226] [comp0810:227053:0]            sys.c:618  UCX  ERROR shmget(size=2097152 flags=0xb80) for ucp_am_bufs failed: Operation not permitted, please check shared memory limits by 'ipcs -l'
[1631720194.346688] [comp0810:227054:0]            sys.c:618  UCX  ERROR shmget(size=2097152 flags=0xb80) for ucp_am_bufs failed: Operation not permitted, please check shared memory limits by 'ipcs -l'

Timings for individual modules:

Sum of individual times         ...      443.881 sec (=   7.398 min)
GTO integral calculation        ...       41.451 sec (=   0.691 min)   9.3 %
SCF iterations                  ...      294.094 sec (=   4.902 min)  66.3 %
SCF Gradient evaluation         ...      104.906 sec (=   1.748 min)  23.6 %
Geometry relaxation             ...        3.431 sec (=   0.057 min)   0.8 %
                             ****ORCA TERMINATED NORMALLY****
TOTAL RUN TIME: 0 days 0 hours 7 minutes 30 seconds 322 msec
