
                                 *****************
                                 * O   R   C   A *
                                 *****************

           --- An Ab Initio, DFT and Semiempirical electronic structure package ---

                  #######################################################
                  #                        -***-                        #
                  #          Department of theory and spectroscopy      #
                  #               Directorship: Frank Neese             #
                  #        Max Planck Institute fuer Kohlenforschung    #
                  #                Kaiser Wilhelm Platz 1               #
                  #                 D-45470 Muelheim/Ruhr               #
                  #                      Germany                        #
                  #                                                     #
                  #                  All rights reserved                #
                  #                        -***-                        #
                  #######################################################


                         Program Version 4.2.1 -  RELEASE  -


 With contributions from (in alphabetic order):
   Daniel Aravena         : Magnetic Suceptibility
   Michael Atanasov       : Ab Initio Ligand Field Theory (pilot matlab implementation)
   Alexander A. Auer      : GIAO ZORA, VPT2
   Ute Becker             : Parallelization
   Giovanni Bistoni       : ED, misc. LED, open-shell LED, HFLD
   Martin Brehm           : Molecular dynamics
   Dmytro Bykov           : SCF Hessian
   Vijay G. Chilkuri      : MRCI spin determinant printing, contributions to CSF-ICE
   Dipayan Datta          : RHF DLPNO-CCSD density
   Achintya Kumar Dutta   : EOM-CC, STEOM-CC
   Dmitry Ganyushin       : Spin-Orbit,Spin-Spin,Magnetic field MRCI
   Miquel Garcia          : C-PCM Hessian, Gaussian charge scheme
   Yang Guo               : DLPNO-NEVPT2, CIM, IAO-localization
   Andreas Hansen         : Spin unrestricted coupled pair/coupled cluster methods
   Benjamin Helmich-Paris : CASSCF linear response (MC-RPA)
   Lee Huntington         : MR-EOM, pCC
   Robert Izsak           : Overlap fitted RIJCOSX, COSX-SCS-MP3, EOM
   Christian Kollmar      : KDIIS, OOCD, Brueckner-CCSD(T), CCSD density
   Simone Kossmann        : Meta GGA functionals, TD-DFT gradient, OOMP2, MP2 Hessian
   Martin Krupicka        : AUTO-CI
   Lucas Lang             : DCDCAS
   Dagmar Lenk            : GEPOL surface, SMD
   Dimitrios Liakos       : Extrapolation schemes; Compound Job, initial MDCI parallelization
   Dimitrios Manganas     : Further ROCIS development; embedding schemes
   Dimitrios Pantazis     : SARC Basis sets
   Taras Petrenko         : DFT Hessian,TD-DFT gradient, ASA, ECA, R-Raman, ABS, FL, XAS/XES, NRVS
   Peter Pinski           : DLPNO-MP2, DLPNO-MP2 Gradient
   Christoph Reimann      : Effective Core Potentials
   Marius Retegan         : Local ZFS, SOC
   Christoph Riplinger    : Optimizer, TS searches, QM/MM, DLPNO-CCSD(T), (RO)-DLPNO pert. Triples
   Tobias Risthaus        : Range-separated hybrids, TD-DFT gradient, RPA, STAB
   Michael Roemelt        : Original ROCIS implementation
   Masaaki Saitow         : Open-shell DLPNO-CCSD energy and density
   Barbara Sandhoefer     : DKH picture change effects
   Avijit Sen             : IP-ROCIS
   Kantharuban Sivalingam : CASSCF convergence, NEVPT2, FIC-MRCI
   Bernardo de Souza      : ESD, SOC TD-DFT
   Georgi Stoychev        : AutoAux, RI-MP2 NMR
   Willem Van den Heuvel  : Paramagnetic NMR
   Boris Wezisla          : Elementary symmetry handling
   Frank Wennmohs         : Technical directorship


 We gratefully acknowledge several colleagues who have allowed us to
 interface, adapt or use parts of their codes:
   Stefan Grimme, W. Hujo, H. Kruse,             : VdW corrections, initial TS optimization,
                  C. Bannwarth                     DFT functionals, gCP, sTDA/sTD-DF
   Ed Valeev, F. Pavosevic, A. Kumar             : LibInt (2-el integral package), F12 methods
   Garnet Chan, S. Sharma, J. Yang, R. Olivares  : DMRG
   Ulf Ekstrom                                   : XCFun DFT Library
   Mihaly Kallay                                 : mrcc  (arbitrary order and MRCC methods)
   Andreas Klamt, Michael Diedenhofen            : otool_cosmo (COSMO solvation model)
   Jiri Pittner, Ondrej Demel                    : Mk-CCSD
   Frank Weinhold                                : gennbo (NPA and NBO analysis)
   Christopher J. Cramer and Donald G. Truhlar   : smd solvation model
   Lars Goerigk                                  : TD-DFT with DH, B97 family of functionals
   V. Asgeirsson, H. Jonsson                     : NEB implementation
   FAccTs GmbH                                   : IRC, NEB, NEB-TS, Multilevel, MM, QM/MM, CI optimization
   S Lehtola, MJT Oliveira, MAL Marques          : LibXC Library


 Your calculation uses the libint2 library for the computation of 2-el integrals
 For citations please refer to: http://libint.valeyev.net

 Your ORCA version has been built with support for libXC version: 4.2.3
 For citations please refer to: https://tddft.org/programs/libxc/

 This ORCA versions uses:
   CBLAS   interface :  Fast vector & matrix operations
   LAPACKE interface :  Fast linear algebra routines
   SCALAPACK package :  Parallel linear algebra routines


Your calculation utilizes the atom-pairwise dispersion correction
with the Becke-Johnson damping scheme (D3BJ)
Cite in your paper:
S.Grimme, S.Ehrlich, L.Goerigk, J Comput Chem, (2011), 32, 1456–1465 
S.Grimme, J.Antony, S.Ehrlich and H.Krieg, J.Chem.Phys., 132, (2010), 154104 
   

----- Orbital basis set information -----
Your calculation utilizes the basis: def2-SVP
   F. Weigend and R. Ahlrichs, Phys. Chem. Chem. Phys. 7, 3297 (2005).

----- AuxJ basis set information -----
Your calculation utilizes the auxiliary basis: def2/J
   F. Weigend, Phys. Chem. Chem. Phys. 8, 1057 (2006).

cite the ECPs for I  [Def2-ECP] as follows:
Ce-Yb(ecp-28): M. Dolg, H. Stoll, H.Preuss, J. Chem. Phys., 1989, 90, 1730-1734.
Y-Cd(ecp-28), Hf-Hg(ecp-46): D. Andrae,U. Haeussermann, M. Dolg, H. Stoll, H. Preuss, Theor. Chim. Acta, 1990, 77, 123-141.
In-Sb(ecp-28), Tl-Bi(ecp-46): B. Metz, H. Stoll, M. Dolg, J. Chem. Phys., 2000, 113, 2563-2569.
Te-Xe(ecp-28), Po-Rn(ecp-46): K. A. Peterson, D. Figgen, E. Goll, H. Stoll, M. Dolg, J. Chem. Phys., 2003, 119, 11113-11123.
Rb(ecp-28), Cs(ecp-46): T. Leininger, A. Nicklass, W. Kuechle, H. Stoll, M. Dolg, A. Bergner, Chem. Phys. Lett., 1996, 255, 274-280.
Sr(ecp-28), Ba(ecp-46): M. Kaupp, P. V. Schleyer, H. Stoll and H. Preuss, J. Chem. Phys., 1991, 94, 1360-1366.
La(ecp-46): M. Dolg, H. Stoll, A. Savin, H. Preuss, Theor. Chim. Acta, 1989, 75, 173-194.
Lu(ecp-28): X. Cao, M. Dolg, J. Chem. Phys., 2001, 115, 7348-7355.

ECP parameters for I  [Def2-ECP] have been obtained from:
TURBOMOLE (7.0.2)

================================================================================
                                        WARNINGS
                       Please study these warnings very carefully!
================================================================================


WARNING: Geometry Optimization
  ===> : Switching off AutoStart
         For restart on a previous wavefunction, please use MOREAD

INFO   : the flag for use of LIBINT has been found!

================================================================================
                                       INPUT FILE
================================================================================
NAME = manual_reactants_359_opt.inp
|  1> ! Opt PBE0 RIJCOSX D3BJ def2-SVP def2/J CPCM(Acetone)
|  2> %geom MaxIter 100 end
|  3> %output 
|  4> xyzfile=True 
|  5> end 
|  6> %scf 
|  7> maxiter 250 
|  8> end
|  9> %output
| 10> Print[P_Hirshfeld] = 1
| 11> end
| 12> % maxcore
| 13> 4000
| 14> %pal nprocs 4
| 15> end
| 16> *xyz -1 1
| 17> C    -0.38749  -2.13295  -1.18649
| 18> C    -0.57626  -1.12766  -0.07916
| 19> C    -1.99626  -1.00924   0.41876
| 20> I     0.12209   0.85905  -0.75986
| 21> H     0.65790  -2.19465  -1.52127
| 22> H    -1.02195  -1.91386  -2.05909
| 23> H    -0.67835  -3.12368  -0.79422
| 24> H     0.09993  -1.30091   0.77732
| 25> H    -2.06851  -0.31879   1.27029
| 26> H    -2.31460  -2.00565   0.77224
| 27> H    -2.69272  -0.68973  -0.37167
| 28> Cl    0.79374  -1.30017   3.06161
| 29> *
| 30> 
| 31>                          ****END OF INPUT****
================================================================================

                       *****************************
                       * Geometry Optimization Run *
                       *****************************

Geometry optimization settings:
Update method            Update   .... BFGS
Choice of coordinates    CoordSys .... Z-matrix Internals
Initial Hessian          InHess   .... Almoef's Model

Convergence Tolerances:
Energy Change            TolE     ....  5.0000e-06 Eh
Max. Gradient            TolMAXG  ....  3.0000e-04 Eh/bohr
RMS Gradient             TolRMSG  ....  1.0000e-04 Eh/bohr
Max. Displacement        TolMAXD  ....  4.0000e-03 bohr
RMS Displacement         TolRMSD  ....  2.0000e-03 bohr
Strict Convergence                ....  False
------------------------------------------------------------------------------
                        ORCA OPTIMIZATION COORDINATE SETUP
------------------------------------------------------------------------------

The optimization will be done in new redundant internal coordinates
Making redundant internal coordinates   ...  (new redundants) done
Evaluating the initial hessian          ...  (Almloef) done
Evaluating the coordinates              ...  done
Calculating the B-matrix                .... done
Calculating the G-matrix                .... done
Diagonalizing the G-matrix              .... done
The first mode is                       ....   21
The number of degrees of freedom        ....   30

    -----------------------------------------------------------------
                    Redundant Internal Coordinates


    -----------------------------------------------------------------
         Definition                    Initial Value    Approx d2E/dq
    -----------------------------------------------------------------
      1. B(C   1,C   0)                  1.5075         0.405832   
      2. B(C   2,C   1)                  1.5094         0.402914   
      3. B(I   3,C   1)                  2.2132         0.102080   
      4. B(H   4,C   0)                  1.0994         0.347851   
      5. B(H   5,C   0)                  1.1009         0.345971   
      6. B(H   6,C   0)                  1.1045         0.341363   
      7. B(H   7,C   1)                  1.1049         0.340918   
      8. B(H   8,C   2)                  1.0987         0.348830   
      9. B(H   9,C   2)                  1.1041         0.341874   
     10. B(H  10,C   2)                  1.1009         0.345999   
     11. B(Cl 11,H   7)                  2.3873         0.006880   
     12. A(C   1,C   0,H   5)          112.1700         0.326609   
     13. A(C   1,C   0,H   4)          112.3446         0.326901   
     14. A(H   4,C   0,H   5)          108.5299         0.287459   
     15. A(C   1,C   0,H   6)          107.7167         0.325889   
     16. A(H   5,C   0,H   6)          107.9531         0.286615   
     17. A(H   4,C   0,H   6)          107.9504         0.286857   
     18. A(I   3,C   1,H   7)          100.7232         0.277002   
     19. A(C   2,C   1,I   3)          109.1404         0.314749   
     20. A(C   2,C   1,H   7)          109.4103         0.325433   
     21. A(C   0,C   1,H   7)          112.8430         0.325819   
     22. A(C   0,C   1,I   3)          109.4631         0.315118   
     23. A(C   0,C   1,C   2)          114.3583         0.373368   
     24. A(H   8,C   2,H   9)          107.4602         0.287050   
     25. A(C   1,C   2,H   9)          107.8209         0.325583   
     26. A(C   1,C   2,H   8)          111.5212         0.326664   
     27. A(H   9,C   2,H  10)          108.0217         0.286685   
     28. A(H   8,C   2,H  10)          109.4205         0.287588   
     29. A(C   1,C   2,H  10)          112.4008         0.326226   
     30. A(C   1,H   7,Cl 11)          156.8554         0.176928   
     31. D(H   7,C   1,C   0,H   4)    -53.8963         0.013055   
     32. D(C   2,C   1,C   0,H   5)     57.6071         0.013055   
     33. D(I   3,C   1,C   0,H   4)     57.3883         0.013055   
     34. D(H   7,C   1,C   0,H   5)   -176.4792         0.013055   
     35. D(C   2,C   1,C   0,H   6)    -61.0517         0.013055   
     36. D(I   3,C   1,C   0,H   6)    176.1466         0.013055   
     37. D(C   2,C   1,C   0,H   4)   -179.8099         0.013055   
     38. D(H   7,C   1,C   0,H   6)     64.8620         0.013055   
     39. D(I   3,C   1,C   0,H   5)    -65.1946         0.013055   
     40. D(H   9,C   2,C   1,I   3)   -178.8043         0.012874   
     41. D(H   9,C   2,C   1,C   0)     58.2192         0.012874   
     42. D(H   8,C   2,C   1,H   7)     48.2780         0.012874   
     43. D(H   8,C   2,C   1,I   3)    -61.0584         0.012874   
     44. D(H   9,C   2,C   1,H   7)    -69.4679         0.012874   
     45. D(H   8,C   2,C   1,C   0)    175.9651         0.012874   
     46. D(H  10,C   2,C   1,H   7)    171.5853         0.012874   
     47. D(H  10,C   2,C   1,I   3)     62.2489         0.012874   
     48. D(H  10,C   2,C   1,C   0)    -60.7276         0.012874   
     49. D(Cl 11,H   7,C   1,I   3)     94.6374         0.106365   
     50. D(Cl 11,H   7,C   1,C   2)    -20.2318         0.106365   
     51. D(Cl 11,H   7,C   1,C   0)   -148.7630         0.106365   
    -----------------------------------------------------------------

Number of atoms                         .... 12
Number of degrees of freedom            .... 51

         *************************************************************
         *                GEOMETRY OPTIMIZATION CYCLE   1            *
         *************************************************************
---------------------------------
CARTESIAN COORDINATES (ANGSTROEM)
---------------------------------
  C     -0.387490   -2.132950   -1.186490
  C     -0.576260   -1.127660   -0.079160
  C     -1.996260   -1.009240    0.418760
  I      0.122090    0.859050   -0.759860
  H      0.657900   -2.194650   -1.521270
  H     -1.021950   -1.913860   -2.059090
  H     -0.678350   -3.123680   -0.794220
  H      0.099930   -1.300910    0.777320
  H     -2.068510   -0.318790    1.270290
  H     -2.314600   -2.005650    0.772240
  H     -2.692720   -0.689730   -0.371670
  Cl     0.793740   -1.300170    3.061610

----------------------------
CARTESIAN COORDINATES (A.U.)
----------------------------
  NO LB      ZA    FRAG     MASS         X           Y           Z
   0 C     6.0000    0    12.011   -0.732250   -4.030691   -2.242141
   1 C     6.0000    0    12.011   -1.088974   -2.130969   -0.149591
   2 C     6.0000    0    12.011   -3.772385   -1.907187    0.791342
   3 I    25.0000*   0   126.900    0.230717    1.623369   -1.435927
   4 H     1.0000    0     1.008    1.243251   -4.147287   -2.874784
   5 H     1.0000    0     1.008   -1.931206   -3.616671   -3.891116
   6 H     1.0000    0     1.008   -1.281896   -5.902900   -1.500858
   7 H     1.0000    0     1.008    0.188840   -2.458364    1.468922
   8 H     1.0000    0     1.008   -3.908917   -0.602426    2.400500
   9 H     1.0000    0     1.008   -4.373960   -3.790129    1.459322
  10 H     1.0000    0     1.008   -5.088503   -1.303401   -0.702355
  11 Cl   17.0000    0    35.453    1.499951   -2.456965    5.785604
* core charge reduced due to ECP

--------------------------------
INTERNAL COORDINATES (ANGSTROEM)
--------------------------------
 C      0   0   0     0.000000000000     0.00000000     0.00000000
 C      1   0   0     1.507455414233     0.00000000     0.00000000
 C      2   1   0     1.509419631117   114.35827928     0.00000000
 I      2   1   3     2.213156532331   109.46310344   237.19826385
 H      1   2   3     1.099420206518   112.34461008   180.19005441
 H      1   2   3     1.100895399073   112.16995582    57.60710997
 H      1   2   3     1.104545709964   107.71667752   298.94830661
 H      2   1   3     1.104901112770   112.84304482   125.91366113
 H      3   2   1     1.098655817761   111.52120337   175.96510828
 H      3   2   1     1.104138285769   107.82088731    58.21920275
 H      3   2   1     1.100873633348   112.40080338   299.27237432
 Cl     8   2   1     2.387331914041   156.85543352   211.23703299

---------------------------
INTERNAL COORDINATES (A.U.)
---------------------------
 C      0   0   0     0.000000000000     0.00000000     0.00000000
 C      1   0   0     2.848677891997     0.00000000     0.00000000
 C      2   1   0     2.852389723975   114.35827928     0.00000000
 I      2   1   3     4.182259737605   109.46310344   237.19826385
 H      1   2   3     2.077603096418   112.34461008   180.19005441
 H      1   2   3     2.080390806342   112.16995582    57.60710997
 H      1   2   3     2.087288894230   107.71667752   298.94830661
 H      2   1   3     2.087960508200   112.84304482   125.91366113
 H      3   2   1     2.076158611008   111.52120337   175.96510828
 H      3   2   1     2.086518974080   107.82088731    58.21920275
 H      3   2   1     2.080349675082   112.40080338   299.27237432
 Cl     8   2   1     4.511403508308   156.85543352   211.23703299

---------------------
BASIS SET INFORMATION
---------------------
There are 4 groups of distinct atoms

 Group   1 Type C   : 7s4p1d contracted to 3s2p1d pattern {511/31/1}
 Group   2 Type I   : 10s7p6d contracted to 4s4p2d pattern {6211/4111/51}
 Group   3 Type H   : 4s1p contracted to 2s1p pattern {31/1}
 Group   4 Type Cl  : 10s7p1d contracted to 4s3p1d pattern {5311/511/1}

Atom   0C    basis set group =>   1
Atom   1C    basis set group =>   1
Atom   2C    basis set group =>   1
Atom   3I    basis set group =>   2
Atom   4H    basis set group =>   3
Atom   5H    basis set group =>   3
Atom   6H    basis set group =>   3
Atom   7H    basis set group =>   3
Atom   8H    basis set group =>   3
Atom   9H    basis set group =>   3
Atom  10H    basis set group =>   3
Atom  11Cl   basis set group =>   4
---------------------------------
AUXILIARY/J BASIS SET INFORMATION
---------------------------------
There are 4 groups of distinct atoms

 Group   1 Type C   : 12s5p4d2f1g contracted to 6s4p3d1f1g pattern {711111/2111/211/2/1}
 Group   2 Type I   : 11s5p5d3f1g contracted to 8s4p3d2f1g pattern {41111111/2111/311/21/1}
 Group   3 Type H   : 5s2p1d contracted to 3s1p1d pattern {311/2/1}
 Group   4 Type Cl  : 14s5p5d2f1g contracted to 8s4p3d1f1g pattern {71111111/2111/311/2/1}

Atom   0C    basis set group =>   1
Atom   1C    basis set group =>   1
Atom   2C    basis set group =>   1
Atom   3I    basis set group =>   2
Atom   4H    basis set group =>   3
Atom   5H    basis set group =>   3
Atom   6H    basis set group =>   3
Atom   7H    basis set group =>   3
Atom   8H    basis set group =>   3
Atom   9H    basis set group =>   3
Atom  10H    basis set group =>   3
Atom  11Cl   basis set group =>   4
-------------------------
ECP PARAMETER INFORMATION
-------------------------

 Group 1, Type I  ECP Def2-ECP (replacing 28 core electrons, lmax=3)

Atom   3I    ECP group =>   1

[1631719789.065397] [comp0808:81199:0]            sys.c:618  UCX  ERROR shmget(size=2097152 flags=0xfb0) for mm_recv_desc failed: Operation not permitted, please check shared memory limits by 'ipcs -l'
[1631719789.066429] [comp0808:81197:0]            sys.c:618  UCX  ERROR shmget(size=2097152 flags=0xfb0) for mm_recv_desc failed: Operation not permitted, please check shared memory limits by 'ipcs -l'
[1631719789.068992] [comp0808:81200:0]            sys.c:618  UCX  ERROR shmget(size=2097152 flags=0xfb0) for mm_recv_desc failed: Operation not permitted, please check shared memory limits by 'ipcs -l'
[1631719789.069073] [comp0808:81198:0]            sys.c:618  UCX  ERROR shmget(size=2097152 flags=0xfb0) for mm_recv_desc failed: Operation not permitted, please check shared memory limits by 'ipcs -l'
[1631719789.107015] [comp0808:81197:0]            sys.c:618  UCX  ERROR shmget(size=2097152 flags=0xb80) for ucp_am_bufs failed: Operation not permitted, please check shared memory limits by 'ipcs -l'
[1631719789.112041] [comp0808:81198:0]            sys.c:618  UCX  ERROR shmget(size=2097152 flags=0xb80) for ucp_am_bufs failed: Operation not permitted, please check shared memory limits by 'ipcs -l'
[1631719789.112116] [comp0808:81200:0]            sys.c:618  UCX  ERROR shmget(size=2097152 flags=0xb80) for ucp_am_bufs failed: Operation not permitted, please check shared memory limits by 'ipcs -l'
[1631719789.112802] [comp0808:81199:0]            sys.c:618  UCX  ERROR shmget(size=2097152 flags=0xb80) for ucp_am_bufs failed: Operation not permitted, please check shared memory limits by 'ipcs -l'


           ************************************************************
           *        Program running with 4 parallel MPI-processes     *
           *              working on a common directory               *
           ************************************************************
------------------------------------------------------------------------------
                           ORCA GTO INTEGRAL CALCULATION
                           -- RI-GTO INTEGRALS CHOSEN --
------------------------------------------------------------------------------

                         BASIS SET STATISTICS AND STARTUP INFO

Gaussian basis set:
 # of primitive gaussian shells          ...  112
 # of primitive gaussian functions       ...  218
 # of contracted shells                  ...   57
 # of contracted basis functions         ...  121
 Highest angular momentum                ...    2
 Maximum contraction depth               ...    6
Auxiliary gaussian basis set:
 # of primitive gaussian shells          ...  180
 # of primitive gaussian functions       ...  480
 # of contracted shells                  ...  115
 # of contracted aux-basis functions     ...  333
 Highest angular momentum                ...    4
 Maximum contraction depth               ...    7
Ratio of auxiliary to basis functions    ...  2.75
Integral package used                  ... LIBINT
 One Electron integrals                  
   ECP integrals                         ... done
 Ordering auxiliary basis shells         ... done
 Integral threshhold             Thresh  ...  2.500e-11
 Primitive cut-off               TCut    ...  2.500e-12
 Pre-screening matrix                    ... done
 Shell pair data                         ... 
 Ordering of the shell pairs             ... done (   0.000 sec) 1564 of 1653 pairs
 Determination of significant pairs      ... done (   0.000 sec)
 Creation of shell pair data             ... done (   0.000 sec)
 Storage of shell pair data              ... done (   0.000 sec)
 Shell pair data done in (   0.001 sec)
 Computing two index integrals           ... done
 Cholesky decomposition of the V-matrix  ... done


Timings:
 Total evaluation time                   ...   0.257 sec (  0.004 min)
 One electron matrix time                ...   0.110 sec (  0.002 min) = 42.9%
 Schwartz matrix evaluation time         ...   0.113 sec (  0.002 min) = 44.0%
 Two index repulsion integral time       ...   0.002 sec (  0.000 min) =  0.9%
 Cholesky decomposition of V             ...   0.002 sec (  0.000 min) =  0.7%
 Three index repulsion integral time     ...   0.000 sec (  0.000 min) =  0.0%

[1631719790.294645] [comp0808:81265:0]            sys.c:618  UCX  ERROR shmget(size=2097152 flags=0xfb0) for mm_recv_desc failed: Operation not permitted, please check shared memory limits by 'ipcs -l'
[1631719790.298243] [comp0808:81263:0]            sys.c:618  UCX  ERROR shmget(size=2097152 flags=0xfb0) for mm_recv_desc failed: Operation not permitted, please check shared memory limits by 'ipcs -l'
[1631719790.300523] [comp0808:81260:0]            sys.c:618  UCX  ERROR shmget(size=2097152 flags=0xfb0) for mm_recv_desc failed: Operation not permitted, please check shared memory limits by 'ipcs -l'
[1631719790.313473] [comp0808:81261:0]            sys.c:618  UCX  ERROR shmget(size=2097152 flags=0xfb0) for mm_recv_desc failed: Operation not permitted, please check shared memory limits by 'ipcs -l'
[1631719790.340774] [comp0808:81261:0]            sys.c:618  UCX  ERROR shmget(size=2097152 flags=0xb80) for ucp_am_bufs failed: Operation not permitted, please check shared memory limits by 'ipcs -l'
[1631719790.341373] [comp0808:81260:0]            sys.c:618  UCX  ERROR shmget(size=2097152 flags=0xb80) for ucp_am_bufs failed: Operation not permitted, please check shared memory limits by 'ipcs -l'
[1631719790.342058] [comp0808:81263:0]            sys.c:618  UCX  ERROR shmget(size=2097152 flags=0xb80) for ucp_am_bufs failed: Operation not permitted, please check shared memory limits by 'ipcs -l'
[1631719790.342058] [comp0808:81265:0]            sys.c:618  UCX  ERROR shmget(size=2097152 flags=0xb80) for ucp_am_bufs failed: Operation not permitted, please check shared memory limits by 'ipcs -l'


           ************************************************************
           *        Program running with 4 parallel MPI-processes     *
           *              working on a common directory               *
           ************************************************************
-------------------------------------------------------------------------------
                                 ORCA SCF
-------------------------------------------------------------------------------

------------
SCF SETTINGS
------------
Hamiltonian:
 Density Functional     Method          .... DFT(GTOs)
 Exchange Functional    Exchange        .... PBE
   PBE kappa parameter   XKappa         ....  0.804000
   PBE mue parameter    XMuePBE         ....  0.219520
 Correlation Functional Correlation     .... PBE
   PBE beta parameter  CBetaPBE         ....  0.066725
 LDA part of GGA corr.  LDAOpt          .... PW91-LDA
 Gradients option       PostSCFGGA      .... off
 Hybrid DFT is turned on
   Fraction HF Exchange ScalHFX         ....  0.250000
   Scaling of DF-GGA-X  ScalDFX         ....  0.750000
   Scaling of DF-GGA-C  ScalDFC         ....  1.000000
   Scaling of DF-LDA-C  ScalLDAC        ....  1.000000
   Perturbative correction              ....  0.000000
   Density functional embedding theory  .... OFF
   NL short-range parameter             ....  6.900000
 RI-approximation to the Coulomb term is turned on
   Number of auxiliary basis functions  .... 333
   RIJ-COSX (HFX calculated with COS-X)).... on


General Settings:
 Integral files         IntName         .... manual_reactants_359_opt
 Hartree-Fock type      HFTyp           .... RHF
 Total Charge           Charge          ....   -1
 Multiplicity           Mult            ....    1
 Number of Electrons    NEL             ....   68
 Basis Dimension        Dim             ....  121
 Nuclear Repulsion      ENuc            ....    299.4833045652 Eh

Convergence Acceleration:
 DIIS                   CNVDIIS         .... on
   Start iteration      DIISMaxIt       ....    12
   Startup error        DIISStart       ....  0.200000
   # of expansion vecs  DIISMaxEq       ....     5
   Bias factor          DIISBfac        ....   1.050
   Max. coefficient     DIISMaxC        ....  10.000
 Newton-Raphson         CNVNR           .... off
 SOSCF                  CNVSOSCF        .... on
   Start iteration      SOSCFMaxIt      ....   150
   Startup grad/error   SOSCFStart      ....  0.003300
 Level Shifting         CNVShift        .... on
   Level shift para.    LevelShift      ....    0.2500
   Turn off err/grad.   ShiftErr        ....    0.0010
 Zerner damping         CNVZerner       .... off
 Static damping         CNVDamp         .... on
   Fraction old density DampFac         ....    0.7000
   Max. Damping (<1)    DampMax         ....    0.9800
   Min. Damping (>=0)   DampMin         ....    0.0000
   Turn off err/grad.   DampErr         ....    0.1000
 Fernandez-Rico         CNVRico         .... off

SCF Procedure:
 Maximum # iterations   MaxIter         ....   250
 SCF integral mode      SCFMode         .... Direct
   Integral package                     .... LIBINT
 Reset frequency        DirectResetFreq ....    20
 Integral Threshold     Thresh          ....  2.500e-11 Eh
 Primitive CutOff       TCut            ....  2.500e-12 Eh

Convergence Tolerance:
 Convergence Check Mode ConvCheckMode   .... Total+1el-Energy
 Convergence forced     ConvForced      .... 0
 Energy Change          TolE            ....  1.000e-08 Eh
 1-El. energy change                    ....  1.000e-05 Eh
 Orbital Gradient       TolG            ....  1.000e-05
 Orbital Rotation angle TolX            ....  1.000e-05
 DIIS Error             TolErr          ....  5.000e-07


Diagonalization of the overlap matrix:
Smallest eigenvalue                        ... 2.752e-03
Time for diagonalization                   ...    0.004 sec
Threshold for overlap eigenvalues          ... 1.000e-08
Number of eigenvalues below threshold      ... 0
Time for construction of square roots      ...    0.001 sec
Total time needed                          ...    0.005 sec

-------------------
DFT GRID GENERATION
-------------------

General Integration Accuracy     IntAcc      ...  4.340
Radial Grid Type                 RadialGrid  ... Gauss-Chebyshev
Angular Grid (max. acc.)         AngularGrid ... Lebedev-110
Angular grid pruning method      GridPruning ... 3 (G Style)
Weight generation scheme         WeightScheme... Becke
Basis function cutoff            BFCut       ...    1.0000e-11
Integration weight cutoff        WCut        ...    1.0000e-14
Grids for H and He will be reduced by one unit

# of grid points (after initial pruning)     ...  15652 (   0.0 sec)
# of grid points (after weights+screening)   ...  14836 (   0.0 sec)
nearest neighbour list constructed           ...    0.0 sec
Grid point re-assignment to atoms done       ...    0.0 sec
Grid point division into batches done        ...    0.0 sec
Reduced shell lists constructed in    0.1 sec

Total number of grid points                  ...    14836
Total number of batches                      ...      237
Average number of points per batch           ...       62
Average number of grid points per atom       ...     1236
Average number of shells per batch           ...    44.74 (78.49%)
Average number of basis functions per batch  ...    94.84 (78.38%)
Average number of large shells per batch     ...    37.43 (83.66%)
Average number of large basis fcns per batch ...    77.52 (81.75%)
Maximum spatial batch extension              ...  22.56, 19.06, 18.56 au
Average spatial batch extension              ...   0.81,  0.79,  0.74 au

Time for grid setup =    0.078 sec

------------------------------
INITIAL GUESS: MODEL POTENTIAL
------------------------------
Loading Hartree-Fock densities                     ... done
  calling /usr/local/orca_4_2_1_linux_x86-64/orca manual_reactants_359_opt_atom53.inp > manual_reactants_359_opt_atom53.out in order to generate an atomic fitting density for atom 3 (I  with ECP) on-the-fly... 
    atom 3 (I ), assumed electronic state with S=2: 1s2 2s2 2p6 3s2 3p6 4s2 3d10 4p6 5s2 4d10 5p5           ... done
Calculating cut-offs                               ... done
Setting up the integral package                    ... done
Initializing the effective Hamiltonian             ... done
Starting the Coulomb interaction                   ... done (   0.0 sec)
Reading the grid                                   ... done
Mapping shells                                     ... done
Starting the XC term evaluation                    ... done (   0.0 sec)
  promolecular density results
     # of electrons  =     94.996017102
     EX              =   -217.853562374
     EC              =     -4.319569311
     EX+EC           =   -222.173131685
Transforming the Hamiltonian                       ... done (   0.0 sec)
Diagonalizing the Hamiltonian                      ... done (   0.0 sec)
Back transforming the eigenvectors                 ... done (   0.0 sec)
Now organizing SCF variables                       ... done
                      ------------------
                      INITIAL GUESS DONE (   1.7 sec)
                      ------------------
--------------------
COSX GRID GENERATION
--------------------

General Integration Accuracy     IntAcc      ...  3.340
Radial Grid Type                 RadialGrid  ... Gauss-Chebyshev
Angular Grid (max. acc.)         AngularGrid ... Lebedev-50
Angular grid pruning method      GridPruning ... 3 (G Style)
Weight generation scheme         WeightScheme... Becke
Basis function cutoff            BFCut       ...    1.0000e-11
Integration weight cutoff        WCut        ...    1.0000e-14
Grids for H and He will be reduced by one unit

# of grid points (after initial pruning)     ...   5916 (   0.0 sec)
# of grid points (after weights+screening)   ...   5616 (   0.0 sec)
nearest neighbour list constructed           ...    0.0 sec
Grid point re-assignment to atoms done       ...    0.0 sec
Grid point division into batches done        ...    0.0 sec
Reduced shell lists constructed in    0.0 sec

Total number of grid points                  ...     5616
Total number of batches                      ...       92
Average number of points per batch           ...       61
Average number of grid points per atom       ...      468
Average number of shells per batch           ...    45.92 (80.56%)
Average number of basis functions per batch  ...    97.58 (80.65%)
Average number of large shells per batch     ...    39.46 (85.93%)
Average number of large basis fcns per batch ...    82.12 (84.16%)
Maximum spatial batch extension              ...  19.45, 17.29, 17.29 au
Average spatial batch extension              ...   0.95,  0.85,  0.84 au

Overlap Fitting                  UseSFitting ... on
Constructing numerical overlap ... done (      0.0 sec)
Inverting numerical overlap    ... done (      0.0 sec)
Obtaining analytic overlap     ... done (      0.0 sec)
Final contraction and storage  ... done (      0.0 sec)


General Integration Accuracy     IntAcc      ...  3.670
Radial Grid Type                 RadialGrid  ... Gauss-Chebyshev
Angular Grid (max. acc.)         AngularGrid ... Lebedev-50
Angular grid pruning method      GridPruning ... 3 (G Style)
Weight generation scheme         WeightScheme... Becke
Basis function cutoff            BFCut       ...    1.0000e-11
Integration weight cutoff        WCut        ...    1.0000e-14
Grids for H and He will be reduced by one unit

# of grid points (after initial pruning)     ...   7410 (   0.0 sec)
# of grid points (after weights+screening)   ...   7027 (   0.0 sec)
nearest neighbour list constructed           ...    0.0 sec
Grid point re-assignment to atoms done       ...    0.0 sec
Grid point division into batches done        ...    0.0 sec
Reduced shell lists constructed in    0.0 sec

Total number of grid points                  ...     7027
Total number of batches                      ...      117
Average number of points per batch           ...       60
Average number of grid points per atom       ...      586
Average number of shells per batch           ...    45.87 (80.48%)
Average number of basis functions per batch  ...    97.55 (80.62%)
Average number of large shells per batch     ...    38.87 (84.74%)
Average number of large basis fcns per batch ...    80.55 (82.57%)
Maximum spatial batch extension              ...  21.04, 20.85, 18.10 au
Average spatial batch extension              ...   0.93,  0.95,  0.87 au

Overlap Fitting                  UseSFitting ... on
Constructing numerical overlap ... done (      0.0 sec)
Inverting numerical overlap    ... done (      0.0 sec)
Obtaining analytic overlap     ... done (      0.0 sec)
Final contraction and storage  ... done (      0.0 sec)


General Integration Accuracy     IntAcc      ...  4.010
Radial Grid Type                 RadialGrid  ... Gauss-Chebyshev
Angular Grid (max. acc.)         AngularGrid ... Lebedev-110
Angular grid pruning method      GridPruning ... 3 (G Style)
Weight generation scheme         WeightScheme... Becke
Basis function cutoff            BFCut       ...    1.0000e-11
Integration weight cutoff        WCut        ...    1.0000e-14
Grids for H and He will be reduced by one unit

# of grid points (after initial pruning)     ...  13686 (   0.0 sec)
# of grid points (after weights+screening)   ...  12992 (   0.0 sec)
nearest neighbour list constructed           ...    0.0 sec
Grid point re-assignment to atoms done       ...    0.0 sec
Grid point division into batches done        ...    0.0 sec
Reduced shell lists constructed in    0.0 sec

Total number of grid points                  ...    12992
Total number of batches                      ...      208
Average number of points per batch           ...       62
Average number of grid points per atom       ...     1083
Average number of shells per batch           ...    45.81 (80.37%)
Average number of basis functions per batch  ...    97.09 (80.24%)
Average number of large shells per batch     ...    38.30 (83.61%)
Average number of large basis fcns per batch ...    79.36 (81.73%)
Maximum spatial batch extension              ...  22.19, 17.86, 18.05 au
Average spatial batch extension              ...   0.77,  0.75,  0.71 au

Overlap Fitting                  UseSFitting ... on
Constructing numerical overlap ... done (      0.0 sec)
Inverting numerical overlap    ... done (      0.0 sec)
Obtaining analytic overlap     ... done (      0.0 sec)
Final contraction and storage  ... done (      0.0 sec)

Time for X-Grid setup             =    0.155 sec

--------------------
CPCM SOLVATION MODEL
--------------------
CPCM parameters:
  Epsilon                                         ...      20.7000
  Refrac                                          ...       1.3590
  Rsolv                                           ...       1.3000
  Surface type                                    ...    GEPOL SES
  Epsilon function type                           ...         CPCM
Radii:
 Radius for C  used is    3.7795 Bohr (=   2.0000 Ang.)
 Radius for I  used is    4.3842 Bohr (=   2.3200 Ang.)
 Radius for H  used is    2.4566 Bohr (=   1.3000 Ang.)
 Radius for Cl used is    3.8739 Bohr (=   2.0500 Ang.)
Calculating surface                               ...        done! (  0.0s)
GEPOL surface points                              ...          506
GEPOL Volume                                      ...    1051.6334
GEPOL Surface-area                                ...     600.1325
Calculating surface distance matrix               ...        done! (  0.0s)
Performing Cholesky decomposition & store         ...        done! (  0.0s)
Overall time for CPCM initialization              ...                 0.0s
--------------
SCF ITERATIONS
--------------
ITER       Energy         Delta-E        Max-DP      RMS-DP      [F,P]     Damp
               ***  Starting incremental Fock matrix formation  ***
  0   -848.4528089386   0.000000000000 2.60085433  0.05630294  1.0356576 0.7000
  1   -856.6599949882  -8.207186049573 2.47589742  0.04777775  0.6723785 0.7000
  2   -862.3886778267  -5.728682838477 0.96509475  0.02133655  0.4497610 0.7000
  3   -866.4537950258  -4.065117199141 0.84566454  0.01605566  0.2958181 0.7000
  4   -869.3182273370  -2.864432311180 0.62657966  0.01181666  0.2077970 0.7000
                               ***Turning on DIIS***
  5   -871.3223791448  -2.004151807815 0.43954442  0.00855054  0.1582166 0.7000
  6   -872.7281659621  -1.405786817288 0.29083459  0.00621365  0.1265532 0.7000
  7   -873.7151941088  -0.987028146743 0.64268174  0.01480382  0.0890136 0.0000
  8   -876.0316028512  -2.316408742354 0.01641661  0.00057169  0.0054401 0.0000
                      *** Initiating the SOSCF procedure ***
                           *** Shutting down DIIS ***
                      *** Re-Reading the Fockian *** 
                      *** Removing any level shift *** 
ITER      Energy       Delta-E        Grad      Rot      Max-DP    RMS-DP
  9   -876.03200324  -0.0004003879  0.001964  0.001964  0.008996  0.000306
               *** Restarting incremental Fock matrix formation ***
 10   -876.03213905  -0.0001358098  0.001521  0.013345  0.014057  0.000429
 11   -876.03221502  -0.0000759712  0.000362  0.005699  0.005514  0.000172
 12   -876.03221666  -0.0000016447  0.000529  0.000936  0.001283  0.000049
 13   -876.03222190  -0.0000052321  0.000125  0.000314  0.000631  0.000022
 14   -876.03222198  -0.0000000781  0.000112  0.000084  0.000297  0.000009
 15   -876.03222209  -0.0000001114  0.000004  0.000027  0.000026  0.000001
 16   -876.03222209  -0.0000000017  0.000003  0.000002  0.000010  0.000000
                 **** Energy Check signals convergence ****
              ***Rediagonalizing the Fockian in SOSCF/NRSCF***

               *****************************************************
               *                     SUCCESS                       *
               *           SCF CONVERGED AFTER  17 CYCLES          *
               *****************************************************

Setting up the final grid:

General Integration Accuracy     IntAcc      ...  4.670
Radial Grid Type                 RadialGrid  ... Gauss-Chebyshev
Angular Grid (max. acc.)         AngularGrid ... Lebedev-302
Angular grid pruning method      GridPruning ... 3 (G Style)
Weight generation scheme         WeightScheme... Becke
Basis function cutoff            BFCut       ...    1.0000e-11
Integration weight cutoff        WCut        ...    1.0000e-14
Grids for H and He will be reduced by one unit

# of grid points (after initial pruning)     ...  59874 (   0.0 sec)
# of grid points (after weights+screening)   ...  56164 (   0.0 sec)
nearest neighbour list constructed           ...    0.0 sec
Grid point re-assignment to atoms done       ...    0.0 sec
Grid point division into batches done        ...    0.2 sec
Reduced shell lists constructed in    0.3 sec

Total number of grid points                  ...    56164
Total number of batches                      ...      884
Average number of points per batch           ...       63
Average number of grid points per atom       ...     4680
Average number of shells per batch           ...    42.98 (75.41%)
Average number of basis functions per batch  ...    90.61 (74.89%)
Average number of large shells per batch     ...    35.55 (82.72%)
Average number of large basis fcns per batch ...    73.22 (80.81%)
Maximum spatial batch extension              ...  19.99, 17.35, 16.03 au
Average spatial batch extension              ...   0.52,  0.53,  0.52 au

Final grid set up in    0.3 sec
Final integration                            ... done (   0.1 sec)
Change in XC energy                          ...     0.000036780
Integrated number of electrons               ...    68.000132121
Previous integrated no of electrons          ...    67.999281739
Old exchange energy                            =    -16.745511445 Eh
New exchange energy                            =    -16.745060894 Eh
Exchange energy change after final integration =      0.000450551 Eh
Total energy after final integration           =   -876.031734754 Eh
Final COS-X integration done in                =     0.618 sec

----------------
TOTAL SCF ENERGY
----------------

Total Energy       :         -876.03173475 Eh          -23838.03540 eV

Components:
Nuclear Repulsion  :          299.48330457 Eh            8149.35502 eV
Electronic Energy  :        -1175.51503932 Eh          -31987.39043 eV
One Electron Energy:        -1921.13898291 Eh          -52276.84943 eV
Two Electron Energy:          745.62394360 Eh           20289.45900 eV
CPCM Dielectric    :           -0.05635450 Eh              -1.53348 eV

Virial components:
Potential Energy   :        -1565.65467756 Eh          -42603.62970 eV
Kinetic Energy     :          689.62294280 Eh           18765.59430 eV
Virial Ratio       :            2.27030538


DFT components:
N(Alpha)           :       34.000066060665 electrons
N(Beta)            :       34.000066060665 electrons
N(Total)           :       68.000132121331 electrons
E(X)               :      -49.941290644924 Eh       
E(C)               :       -2.647715137835 Eh       
E(XC)              :      -52.589005782759 Eh       
DFET-embed. en.    :        0.000000000000 Eh       
CPCM Solvation Model Properties:
Surface-charge          :            0.72894229
Charge-correction       :           -0.03621954 Eh              -0.98558 eV
Free-energy (cav+disp)  :            0.00391661 Eh               0.10658 eV
Corrected G(solv)       :         -876.06403769 Eh          -23838.91441 eV

---------------
SCF CONVERGENCE
---------------

  Last Energy change         ...    2.8921e-09  Tolerance :   1.0000e-08
  Last MAX-Density change    ...    2.2204e-15  Tolerance :   1.0000e-07
  Last RMS-Density change    ...    7.6113e-17  Tolerance :   5.0000e-09
  Last Orbital Gradient      ...    6.4123e-07  Tolerance :   1.0000e-05
  Last Orbital Rotation      ...    3.3590e-06  Tolerance :   1.0000e-05

             **** THE GBW FILE WAS UPDATED (manual_reactants_359_opt.gbw) ****
             **** DENSITY FILE WAS UPDATED (manual_reactants_359_opt.scfp) ****
             **** ENERGY FILE WAS UPDATED (manual_reactants_359_opt.en.tmp) ****
             **** THE GBW FILE WAS UPDATED (manual_reactants_359_opt.gbw) ****
             **** DENSITY FILE WAS UPDATED (manual_reactants_359_opt.scfp) ****
----------------
ORBITAL ENERGIES
----------------

  NO   OCC          E(Eh)            E(eV) 
   0   2.0000    -101.424504     -2759.9011 
   1   2.0000     -10.251493      -278.9573 
   2   2.0000     -10.217778      -278.0399 
   3   2.0000     -10.210549      -277.8432 
   4   2.0000      -9.271494      -252.2902 
   5   2.0000      -7.008091      -190.6999 
   6   2.0000      -7.006762      -190.6637 
   7   2.0000      -7.006662      -190.6610 
   8   2.0000      -6.864138      -186.7827 
   9   2.0000      -4.880185      -132.7966 
  10   2.0000      -4.867755      -132.4584 
  11   2.0000      -4.867233      -132.4442 
  12   2.0000      -1.906563       -51.8802 
  13   2.0000      -1.903265       -51.7905 
  14   2.0000      -1.902710       -51.7754 
  15   2.0000      -1.892243       -51.4906 
  16   2.0000      -1.892212       -51.4897 
  17   2.0000      -0.799805       -21.7638 
  18   2.0000      -0.687475       -18.7071 
  19   2.0000      -0.673841       -18.3362 
  20   2.0000      -0.573857       -15.6154 
  21   2.0000      -0.552502       -15.0343 
  22   2.0000      -0.451899       -12.2968 
  23   2.0000      -0.435045       -11.8382 
  24   2.0000      -0.408799       -11.1240 
  25   2.0000      -0.383247       -10.4287 
  26   2.0000      -0.348560        -9.4848 
  27   2.0000      -0.337569        -9.1857 
  28   2.0000      -0.295468        -8.0401 
  29   2.0000      -0.248658        -6.7663 
  30   2.0000      -0.246074        -6.6960 
  31   2.0000      -0.118182        -3.2159 
  32   2.0000      -0.111607        -3.0370 
  33   2.0000      -0.110983        -3.0200 
  34   0.0000      -0.002132        -0.0580 
  35   0.0000       0.096076         2.6144 
  36   0.0000       0.137893         3.7523 
  37   0.0000       0.148828         4.0498 
  38   0.0000       0.153958         4.1894 
  39   0.0000       0.186014         5.0617 
  40   0.0000       0.189693         5.1618 
  41   0.0000       0.218349         5.9416 
  42   0.0000       0.248072         6.7504 
  43   0.0000       0.260430         7.0867 
  44   0.0000       0.308945         8.4068 
  45   0.0000       0.371139        10.0992 
  46   0.0000       0.385315        10.4850 
  47   0.0000       0.398672        10.8484 
  48   0.0000       0.416266        11.3272 
  49   0.0000       0.430926        11.7261 
  50   0.0000       0.444348        12.0913 
  51   0.0000       0.447099        12.1662 
  52   0.0000       0.480359        13.0712 
  53   0.0000       0.501242        13.6395 
  54   0.0000       0.545200        14.8356 
  55   0.0000       0.596521        16.2322 
  56   0.0000       0.641203        17.4480 
  57   0.0000       0.653395        17.7798 
  58   0.0000       0.667453        18.1623 
  59   0.0000       0.674493        18.3539 
  60   0.0000       0.677406        18.4331 
  61   0.0000       0.689045        18.7499 
  62   0.0000       0.713135        19.4054 
  63   0.0000       0.717743        19.5308 
  64   0.0000       0.732665        19.9368 
  65   0.0000       0.737291        20.0627 
  66   0.0000       0.745953        20.2984 
  67   0.0000       0.778057        21.1720 
  68   0.0000       0.806849        21.9555 
  69   0.0000       0.854598        23.2548 
  70   0.0000       0.922522        25.1031 
  71   0.0000       1.019684        27.7470 
  72   0.0000       1.021091        27.7853 
  73   0.0000       1.023791        27.8588 
  74   0.0000       1.024967        27.8908 
  75   0.0000       1.043388        28.3920 
  76   0.0000       1.056264        28.7424 
  77   0.0000       1.088128        29.6095 
  78   0.0000       1.104824        30.0638 
  79   0.0000       1.117894        30.4194 
  80   0.0000       1.168672        31.8012 
  81   0.0000       1.225000        33.3339 
  82   0.0000       1.262810        34.3628 
  83   0.0000       1.363686        37.1078 
  84   0.0000       1.512999        41.1708 
  85   0.0000       1.548422        42.1347 
  86   0.0000       1.553599        42.2756 
  87   0.0000       1.561693        42.4958 
  88   0.0000       1.629895        44.3517 
  89   0.0000       1.746997        47.5382 
  90   0.0000       1.781122        48.4668 
  91   0.0000       1.799741        48.9735 
  92   0.0000       1.835071        49.9348 
  93   0.0000       1.840166        50.0735 
  94   0.0000       1.851057        50.3698 
  95   0.0000       1.880228        51.1636 
  96   0.0000       1.903922        51.8084 
  97   0.0000       1.920693        52.2647 
  98   0.0000       1.972816        53.6831 
  99   0.0000       2.040198        55.5166 
 100   0.0000       2.150663        58.5225 
 101   0.0000       2.180824        59.3432 
 102   0.0000       2.276453        61.9454 
 103   0.0000       2.288110        62.2626 
 104   0.0000       2.409601        65.5686 
 105   0.0000       2.419003        65.8244 
 106   0.0000       2.500135        68.0321 
 107   0.0000       2.589033        70.4512 
 108   0.0000       2.615207        71.1634 
 109   0.0000       2.631428        71.6048 
 110   0.0000       2.758099        75.0517 
 111   0.0000       2.878506        78.3281 
 112   0.0000       2.934160        79.8425 
 113   0.0000       2.938018        79.9475 
 114   0.0000       3.022468        82.2455 
 115   0.0000       3.055446        83.1429 
 116   0.0000       3.079653        83.8016 
 117   0.0000      18.664951       507.8991 
 118   0.0000      18.686105       508.4748 
 119   0.0000      18.998265       516.9691 
 120   0.0000      55.963449      1522.8429 

                    ********************************
                    * MULLIKEN POPULATION ANALYSIS *
                    ********************************

-----------------------
MULLIKEN ATOMIC CHARGES
-----------------------
   0 C :   -0.032562
   1 C :   -0.313627
   2 C :   -0.021903
   3 I :   -0.201116
   4 H :    0.054756
   5 H :    0.045550
   6 H :    0.057286
   7 H :    0.073826
   8 H :    0.049462
   9 H :    0.056800
  10 H :    0.038831
  11 Cl:   -0.807303
Sum of atomic charges:   -1.0000000

--------------------------------
MULLIKEN REDUCED ORBITAL CHARGES
--------------------------------
  0 C s       :     3.027383  s :     3.027383
      pz      :     0.987201  p :     2.977381
      px      :     1.022312
      py      :     0.967868
      dz2     :     0.004995  d :     0.027798
      dxz     :     0.006840
      dyz     :     0.006321
      dx2y2   :     0.007201
      dxy     :     0.002441
  1 C s       :     3.296376  s :     3.296376
      pz      :     1.065023  p :     2.977733
      px      :     1.083720
      py      :     0.828990
      dz2     :     0.006770  d :     0.039519
      dxz     :     0.009414
      dyz     :     0.007619
      dx2y2   :     0.009221
      dxy     :     0.006495
  2 C s       :     3.014651  s :     3.014651
      pz      :     0.999736  p :     2.979538
      px      :     0.937068
      py      :     1.042734
      dz2     :     0.003410  d :     0.027714
      dxz     :     0.007513
      dyz     :     0.005922
      dx2y2   :     0.007306
      dxy     :     0.003563
  3 I s       :     3.968893  s :     3.968893
      pz      :     3.913535  p :    11.195903
      px      :     3.910939
      py      :     3.371429
      dz2     :     2.004337  d :    10.036320
      dxz     :     2.001974
      dyz     :     2.010686
      dx2y2   :     2.011112
      dxy     :     2.008210
  4 H s       :     0.921609  s :     0.921609
      pz      :     0.005396  p :     0.023634
      px      :     0.013870
      py      :     0.004368
  5 H s       :     0.930824  s :     0.930824
      pz      :     0.010661  p :     0.023626
      px      :     0.008169
      py      :     0.004796
  6 H s       :     0.918496  s :     0.918496
      pz      :     0.005786  p :     0.024217
      px      :     0.005761
      py      :     0.012670
  7 H s       :     0.899106  s :     0.899106
      pz      :     0.015923  p :     0.027068
      px      :     0.008317
      py      :     0.002829
  8 H s       :     0.927166  s :     0.927166
      pz      :     0.010812  p :     0.023372
      px      :     0.003839
      py      :     0.008721
  9 H s       :     0.918953  s :     0.918953
      pz      :     0.006187  p :     0.024246
      px      :     0.005182
      py      :     0.012877
 10 H s       :     0.937694  s :     0.937694
      pz      :     0.009759  p :     0.023475
      px      :     0.007806
      py      :     0.005910
 11 Cls       :     5.987301  s :     5.987301
      pz      :     3.849979  p :    11.819502
      px      :     3.977215
      py      :     3.992308
      dz2     :     0.000339  d :     0.000501
      dxz     :     0.000125
      dyz     :     0.000022
      dx2y2   :     0.000011
      dxy     :     0.000004


                     *******************************
                     * LOEWDIN POPULATION ANALYSIS *
                     *******************************

----------------------
LOEWDIN ATOMIC CHARGES
----------------------
   0 C :   -0.085581
   1 C :   -0.110511
   2 C :   -0.082632
   3 I :   -0.072535
   4 H :    0.030751
   5 H :    0.026666
   6 H :    0.040545
   7 H :   -0.007174
   8 H :    0.028742
   9 H :    0.041554
  10 H :    0.021991
  11 Cl:   -0.831816

-------------------------------
LOEWDIN REDUCED ORBITAL CHARGES
-------------------------------
  0 C s       :     2.848784  s :     2.848784
      pz      :     1.044487  p :     3.163218
      px      :     1.068177
      py      :     1.050553
      dz2     :     0.012208  d :     0.073580
      dxz     :     0.017852
      dyz     :     0.018380
      dx2y2   :     0.019305
      dxy     :     0.005835
  1 C s       :     2.939547  s :     2.939547
      pz      :     1.079440  p :     3.082236
      px      :     1.092828
      py      :     0.909968
      dz2     :     0.014204  d :     0.088728
      dxz     :     0.021862
      dyz     :     0.018341
      dx2y2   :     0.021845
      dxy     :     0.012477
  2 C s       :     2.848786  s :     2.848786
      pz      :     1.062181  p :     3.160968
      px      :     1.021441
      py      :     1.077346
      dz2     :     0.008574  d :     0.072878
      dxz     :     0.019933
      dyz     :     0.015903
      dx2y2   :     0.020002
      dxy     :     0.008466
  3 I s       :     3.865352  s :     3.865352
      pz      :     3.896361  p :    11.162012
      px      :     3.892982
      py      :     3.372669
      dz2     :     2.005523  d :    10.045171
      dxz     :     2.002282
      dyz     :     2.012810
      dx2y2   :     2.014185
      dxy     :     2.010371
  4 H s       :     0.903052  s :     0.903052
      pz      :     0.014981  p :     0.066197
      px      :     0.038707
      py      :     0.012509
  5 H s       :     0.906794  s :     0.906794
      pz      :     0.030808  p :     0.066540
      px      :     0.022118
      py      :     0.013613
  6 H s       :     0.893285  s :     0.893285
      pz      :     0.015780  p :     0.066170
      px      :     0.014431
      py      :     0.035960
  7 H s       :     0.907457  s :     0.907457
      pz      :     0.056445  p :     0.099716
      px      :     0.030616
      py      :     0.012655
  8 H s       :     0.904093  s :     0.904093
      pz      :     0.031322  p :     0.067164
      px      :     0.011991
      py      :     0.023851
  9 H s       :     0.892073  s :     0.892073
      pz      :     0.015746  p :     0.066373
      px      :     0.014771
      py      :     0.035856
 10 H s       :     0.911414  s :     0.911414
      pz      :     0.027249  p :     0.066595
      px      :     0.024099
      py      :     0.015248
 11 Cls       :     5.983248  s :     5.983248
      pz      :     3.876025  p :    11.847966
      px      :     3.977820
      py      :     3.994121
      dz2     :     0.000430  d :     0.000602
      dxz     :     0.000132
      dyz     :     0.000025
      dx2y2   :     0.000011
      dxy     :     0.000004


                      *****************************
                      * MAYER POPULATION ANALYSIS *
                      *****************************

  NA   - Mulliken gross atomic population
  ZA   - Total nuclear charge
  QA   - Mulliken gross atomic charge
  VA   - Mayer's total valence
  BVA  - Mayer's bonded valence
  FA   - Mayer's free valence

  ATOM       NA         ZA         QA         VA         BVA        FA
  0 C      6.0326     6.0000    -0.0326     3.8923     3.8923     0.0000
  1 C      6.3136     6.0000    -0.3136     3.8438     3.8438     0.0000
  2 C      6.0219     6.0000    -0.0219     3.8914     3.8914     0.0000
  3 I     25.2011    25.0000    -0.2011     0.9921     0.9921     0.0000
  4 H      0.9452     1.0000     0.0548     0.9858     0.9858    -0.0000
  5 H      0.9545     1.0000     0.0455     0.9893     0.9893    -0.0000
  6 H      0.9427     1.0000     0.0573     0.9892     0.9892     0.0000
  7 H      0.9262     1.0000     0.0738     1.1605     1.1605    -0.0000
  8 H      0.9505     1.0000     0.0495     1.0153     1.0153    -0.0000
  9 H      0.9432     1.0000     0.0568     0.9955     0.9955    -0.0000
 10 H      0.9612     1.0000     0.0388     0.9873     0.9873     0.0000
 11 Cl    17.8073    17.0000    -0.8073     0.3569     0.3569    -0.0000

  Mayer bond orders larger than 0.100000
B(  0-C ,  1-C ) :   1.0351 B(  0-C ,  4-H ) :   0.9681 B(  0-C ,  5-H ) :   0.9674 
B(  0-C ,  6-H ) :   0.9529 B(  1-C ,  2-C ) :   1.0507 B(  1-C ,  3-I ) :   0.9467 
B(  1-C ,  7-H ) :   0.8188 B(  2-C ,  8-H ) :   0.9585 B(  2-C ,  9-H ) :   0.9514 
B(  2-C , 10-H ) :   0.9658 B(  7-H , 11-Cl) :   0.3410 


------------------
HIRSHFELD ANALYSIS
------------------

Total integrated alpha density =     33.999640870
Total integrated beta density  =     33.999640870

  ATOM     CHARGE      SPIN    
   0 C   -0.077169    0.000000
   1 C    0.038121    0.000000
   2 C   -0.077563    0.000000
   3 I   -0.232975    0.000000
   4 H    0.027147    0.000000
   5 H    0.023658    0.000000
   6 H    0.035281    0.000000
   7 H    0.009876    0.000000
   8 H    0.026345    0.000000
   9 H    0.036764    0.000000
  10 H    0.018790    0.000000
  11 Cl  -0.827556    0.000000

  TOTAL  -0.999282    0.000000

-------
TIMINGS
-------

Total SCF time: 0 days 0 hours 0 min 14 sec 

Total time                  ....      14.262 sec
Sum of individual times     ....      14.089 sec  ( 98.8%)

Fock matrix formation       ....      11.801 sec  ( 82.7%)
  Split-RI-J                ....       1.980 sec  ( 16.8% of F)
  Chain of spheres X        ....       5.751 sec  ( 48.7% of F)
  COS-X 1 center corr.      ....       0.000 sec  (  0.0% of F)
  XC integration            ....       0.683 sec  (  5.8% of F)
    Basis function eval.    ....       0.273 sec  ( 40.0% of XC)
    Density eval.           ....       0.117 sec  ( 17.1% of XC)
    XC-Functional eval.     ....       0.063 sec  (  9.2% of XC)
    XC-Potential eval.      ....       0.171 sec  ( 25.0% of XC)
Diagonalization             ....       0.017 sec  (  0.1%)
Density matrix formation    ....       0.003 sec  (  0.0%)
Population analysis         ....       0.035 sec  (  0.2%)
Initial guess               ....       1.667 sec  ( 11.7%)
Orbital Transformation      ....       0.000 sec  (  0.0%)
Orbital Orthonormalization  ....       0.000 sec  (  0.0%)
DIIS solution               ....       0.005 sec  (  0.0%)
SOSCF solution              ....       0.008 sec  (  0.1%)
Grid generation             ....       0.554 sec  (  3.9%)


-------------------------------------------------------------------------------
                          DFT DISPERSION CORRECTION                            
                                                                               
                              DFTD3 V3.1  Rev 1                                
                          USING Becke-Johnson damping                          
-------------------------------------------------------------------------------
The PBE0 functional is recognized
Active option DFTDOPT                   ...         4   

molecular C6(AA) [au] = 2863.733763 


            DFT-D V3
 parameters
 s6 scaling factor         :     1.0000 
 a1 scaling factor         :     0.4145 
 s8 scaling factor         :     1.2177 
 a2 scaling factor         :     4.8593 
 ad hoc parameters k1-k3   :    16.0000     1.3333    -4.0000 

 Edisp/kcal,au: -6.260504980775  -0.009976748673 
 E6   /kcal   :  -3.666738934 
 E8   /kcal   :  -2.593766047 
 % E8         :  41.430620290 

-------------------------   ----------------
Dispersion correction           -0.009976749
-------------------------   ----------------


-------------------------   --------------------
FINAL SINGLE POINT ENERGY      -876.041711502201
-------------------------   --------------------

[1631719805.559601] [comp0808:81421:0]            sys.c:618  UCX  ERROR shmget(size=2097152 flags=0xfb0) for mm_recv_desc failed: Operation not permitted, please check shared memory limits by 'ipcs -l'
[1631719805.568124] [comp0808:81423:0]            sys.c:618  UCX  ERROR shmget(size=2097152 flags=0xfb0) for mm_recv_desc failed: Operation not permitted, please check shared memory limits by 'ipcs -l'
[1631719805.573851] [comp0808:81422:0]            sys.c:618  UCX  ERROR shmget(size=2097152 flags=0xfb0) for mm_recv_desc failed: Operation not permitted, please check shared memory limits by 'ipcs -l'
[1631719805.574152] [comp0808:81424:0]            sys.c:618  UCX  ERROR shmget(size=2097152 flags=0xfb0) for mm_recv_desc failed: Operation not permitted, please check shared memory limits by 'ipcs -l'
[1631719805.590543] [comp0808:81423:0]            sys.c:618  UCX  ERROR shmget(size=2097152 flags=0xb80) for ucp_am_bufs failed: Operation not permitted, please check shared memory limits by 'ipcs -l'
[1631719805.591473] [comp0808:81424:0]            sys.c:618  UCX  ERROR shmget(size=2097152 flags=0xb80) for ucp_am_bufs failed: Operation not permitted, please check shared memory limits by 'ipcs -l'
[1631719805.591796] [comp0808:81421:0]            sys.c:618  UCX  ERROR shmget(size=2097152 flags=0xb80) for ucp_am_bufs failed: Operation not permitted, please check shared memory limits by 'ipcs -l'


           ************************************************************
           *        Program running with 4 parallel MPI-processes     *
           *              working on a common directory               *
           ************************************************************
[1631719805.596594] [comp0808:81422:0]            sys.c:618  UCX  ERROR shmget(size=2097152 flags=0xb80) for ucp_am_bufs failed: Operation not permitted, please check shared memory limits by 'ipcs -l'
------------------------------------------------------------------------------
                         ORCA SCF GRADIENT CALCULATION
------------------------------------------------------------------------------

Gradient of the Kohn-Sham DFT energy:
Kohn-Sham wavefunction type      ... RKS
Hartree-Fock exchange scaling    ...    0.250
Number of operators              ...    1
Number of atoms                  ...   12
Basis set dimensions             ...  121
Integral neglect threshold       ... 2.5e-11
Integral primitive cutoff        ... 2.5e-12

Nuclear repulsion gradient       ... done
One Electron Gradient            
  ECP gradient                   ... done
Pre-screening matrix             ... done
RI-J gradient                    ... done
COSX-gradient                    ... done
Exchange-correlation gradient    ... done
Dispersion correction            ... done

------------------
CARTESIAN GRADIENT
------------------

   1   C   :    0.001125358   -0.001136758    0.000021765
   2   C   :    0.001573947    0.001807187   -0.001180486
   3   C   :    0.003658157    0.003837330    0.001176541
   4   I   :    0.000008186    0.000698870   -0.000713115
   5   H   :   -0.000032494    0.000094074    0.000000867
   6   H   :    0.000326211    0.000699986    0.000604807
   7   H   :    0.000342043    0.000046361   -0.000433290
   8   H   :   -0.003412656   -0.001563973   -0.008935698
   9   H   :   -0.003013231    0.001100578   -0.001503964
  10   H   :   -0.004394872   -0.005371247   -0.001814384
  11   H   :    0.000720188   -0.000185745    0.000602731
  12   Cl  :    0.004775552   -0.001210983    0.009979517

Difference to translation invariance:
           :    0.0016763907   -0.0011843194   -0.0021947076

Norm of the cartesian gradient     ...    0.0180053273
RMS gradient                       ...    0.0030008879
MAX gradient                       ...    0.0099795171

-------
TIMINGS
-------

Total SCF gradient time            ...        1.907 sec

One electron gradient       ....       0.200 sec  ( 10.5%)
Prescreening matrices       ....       0.011 sec  (  0.6%)
RI-J Coulomb gradient       ....       0.168 sec  (  8.8%)
COSX gradient               ....       0.597 sec  ( 31.3%)
XC gradient                 ....       0.425 sec  ( 22.3%)
CPCM gradient               ....       0.172 sec  (  9.0%)
   A-Matrix (El+Nuc)        ....       0.006 sec  (  0.3%)
   Potential                ....       0.166 sec  (  8.7%)
------------------------------------------------------------------------------
                         ORCA GEOMETRY RELAXATION STEP
------------------------------------------------------------------------------

Reading the OPT-File                    .... done
Getting information on internals        .... done
Copying old internal coords+grads       .... done
Making the new internal coordinates     .... (new redundants).... done
Validating the new internal coordinates .... (new redundants).... done
Calculating the B-matrix                .... done
Calculating the G,G- and P matrices     .... done
Transforming gradient to internals      .... done
Projecting the internal gradient        .... done
Number of atoms                         ....  12
Number of internal coordinates          ....  51
Current Energy                          ....  -876.041711502 Eh
Current gradient norm                   ....     0.018005327 Eh/bohr
Maximum allowed component of the step   ....  0.300
Current trust radius                    ....  0.300
Evaluating the initial hessian          ....  (Almloef) done
Projecting the Hessian                  .... done
Forming the augmented Hessian           .... done
Diagonalizing the augmented Hessian     .... done
Last element of RFO vector              ....  0.818309563
Lowest eigenvalues of augmented Hessian:
 -0.008868675  0.012705700  0.013050511  0.014676967  0.069703294
Length of the computed step             ....  0.702396470
Warning: the length of the step is outside the trust region - taking restricted step instead
The input lambda is                     ....    -0.008869
   iter:   1  x=   -0.015392  g=   61.830879 f(x)=     0.403361
   iter:   2  x=   -0.022673  g=   21.924683 f(x)=     0.159627
   iter:   3  x=   -0.028400  g=    9.423553 f(x)=     0.053966
   iter:   4  x=   -0.030622  g=    5.560990 f(x)=     0.012356
   iter:   5  x=   -0.030852  g=    4.637764 f(x)=     0.001067
   iter:   6  x=   -0.030854  g=    4.554240 f(x)=     0.000010
   iter:   7  x=   -0.030854  g=    4.553480 f(x)=     0.000000
   iter:   8  x=   -0.030854  g=    4.553480 f(x)=     0.000000
The output lambda is                    ....    -0.030854 (8 iterations)
The final length of the internal step   ....  0.300000000
Converting the step to cartesian space:
 Initial RMS(Int)=    0.0420084025
Transforming coordinates:
 Iter   0:  RMS(Cart)=    0.0675717752 RMS(Int)=    0.0412742471
 Iter   1:  RMS(Cart)=    0.0021191937 RMS(Int)=    0.0010741483
 Iter   2:  RMS(Cart)=    0.0001069795 RMS(Int)=    0.0000888403
 Iter   3:  RMS(Cart)=    0.0000030892 RMS(Int)=    0.0000021725
 Iter   4:  RMS(Cart)=    0.0000002076 RMS(Int)=    0.0000000939
 Iter   5:  RMS(Cart)=    0.0000000110 RMS(Int)=    0.0000000088
done
Storing new coordinates                 .... done

                                .--------------------.
          ----------------------|Geometry convergence|-------------------------
          Item                value                   Tolerance       Converged
          ---------------------------------------------------------------------
          RMS gradient        0.0027069611            0.0001000000      NO
          MAX gradient        0.0109624166            0.0003000000      NO
          RMS step            0.0420084025            0.0020000000      NO
          MAX step            0.2905163408            0.0040000000      NO
          ........................................................
          Max(Bonds)      0.1537      Max(Angles)    2.50
          Max(Dihed)        1.60      Max(Improp)    0.00
          ---------------------------------------------------------------------

The optimization has not yet converged - more geometry cycles are needed


    ---------------------------------------------------------------------------
                         Redundant Internal Coordinates
                            (Angstroem and degrees)

        Definition                    Value    dE/dq     Step     New-Value
    ----------------------------------------------------------------------------
     1. B(C   1,C   0)                1.5075 -0.000389  0.0005    1.5079   
     2. B(C   2,C   1)                1.5094  0.003044 -0.0037    1.5057   
     3. B(I   3,C   1)                2.2132  0.000861 -0.0034    2.2097   
     4. B(H   4,C   0)                1.0994 -0.000372  0.0005    1.0999   
     5. B(H   5,C   0)                1.1009 -0.000596  0.0008    1.1017   
     6. B(H   6,C   0)                1.1045 -0.000034  0.0000    1.1046   
     7. B(H   7,C   1)                1.1049  0.002068 -0.0029    1.1020   
     8. B(H   8,C   2)                1.0987  0.000038 -0.0001    1.0986   
     9. B(H   9,C   2)                1.1041  0.005532 -0.0079    1.0963   
    10. B(H  10,C   2)                1.1009 -0.001057  0.0015    1.1024   
    11. B(Cl 11,H   7)                2.3873  0.010962 -0.1537    2.2336   
    12. A(C   1,C   0,H   5)          112.17 -0.001182    0.20    112.37   
    13. A(C   1,C   0,H   4)          112.34  0.000287   -0.05    112.29   
    14. A(H   4,C   0,H   5)          108.53  0.000493   -0.08    108.45   
    15. A(C   1,C   0,H   6)          107.72  0.000125   -0.02    107.70   
    16. A(H   5,C   0,H   6)          107.95  0.000401   -0.05    107.90   
    17. A(H   4,C   0,H   6)          107.95 -0.000086   -0.01    107.94   
    18. A(I   3,C   1,H   7)          100.72  0.000140   -0.27    100.45   
    19. A(C   2,C   1,I   3)          109.14 -0.000593    0.18    109.32   
    20. A(C   2,C   1,H   7)          109.41  0.005505   -1.26    108.15   
    21. A(C   0,C   1,H   7)          112.84 -0.003463    0.73    113.58   
    22. A(C   0,C   1,I   3)          109.46  0.001111    0.07    109.53   
    23. A(C   0,C   1,C   2)          114.36 -0.002348    0.46    114.82   
    24. A(H   8,C   2,H   9)          107.46 -0.000432   -0.44    107.02   
    25. A(C   1,C   2,H   9)          107.82  0.002234   -0.45    107.37   
    26. A(C   1,C   2,H   8)          111.52  0.004070   -0.79    110.73   
    27. A(H   9,C   2,H  10)          108.02 -0.002006    0.65    108.67   
    28. A(H   8,C   2,H  10)          109.42 -0.002211    0.54    109.96   
    29. A(C   1,C   2,H  10)          112.40 -0.001720    0.47    112.88   
    30. A(C   1,H   7,Cl 11)          156.86  0.009077   -2.50    154.35   
    31. D(H   7,C   1,C   0,H   4)    -53.90  0.001108   -0.16    -54.06   
    32. D(C   2,C   1,C   0,H   5)     57.61 -0.001521    0.55     58.16   
    33. D(I   3,C   1,C   0,H   4)     57.39  0.000052   -0.05     57.34   
    34. D(H   7,C   1,C   0,H   5)   -176.48  0.001131   -0.17   -176.65   
    35. D(C   2,C   1,C   0,H   6)    -61.05 -0.001400    0.51    -60.55   
    36. D(I   3,C   1,C   0,H   6)    176.15  0.000196   -0.10    176.04   
    37. D(C   2,C   1,C   0,H   4)   -179.81 -0.001545    0.55   -179.25   
    38. D(H   7,C   1,C   0,H   6)     64.86  0.001252   -0.21     64.65   
    39. D(I   3,C   1,C   0,H   5)    -65.19  0.000075   -0.06    -65.25   
    40. D(H   9,C   2,C   1,I   3)   -178.80 -0.003167    1.60   -177.20   
    41. D(H   9,C   2,C   1,C   0)     58.22 -0.002503    1.06     59.28   
    42. D(H   8,C   2,C   1,H   7)     48.28  0.002578   -0.50     47.77   
    43. D(H   8,C   2,C   1,I   3)    -61.06  0.000002    0.34    -60.72   
    44. D(H   9,C   2,C   1,H   7)    -69.47 -0.000591    0.76    -68.71   
    45. D(H   8,C   2,C   1,C   0)    175.97  0.000666   -0.21    175.76   
    46. D(H  10,C   2,C   1,H   7)    171.59  0.001461   -0.04    171.55   
    47. D(H  10,C   2,C   1,I   3)     62.25 -0.001115    0.81     63.06   
    48. D(H  10,C   2,C   1,C   0)    -60.73 -0.000451    0.26    -60.46   
    49. D(Cl 11,H   7,C   1,I   3)     94.64  0.000292   -0.12     94.52   
    50. D(Cl 11,H   7,C   1,C   2)    -20.23 -0.001156    0.28    -19.95   
    51. D(Cl 11,H   7,C   1,C   0)   -148.76  0.000202    0.12   -148.65   
    ----------------------------------------------------------------------------

         *************************************************************
         *                GEOMETRY OPTIMIZATION CYCLE   2            *
         *************************************************************
---------------------------------
CARTESIAN COORDINATES (ANGSTROEM)
---------------------------------
  C     -0.385317   -2.133636   -1.191998
  C     -0.566925   -1.134326   -0.077439
  C     -1.975629   -1.014369    0.440553
  I      0.138338    0.851134   -0.743359
  H      0.659680   -2.197065   -1.529379
  H     -1.020197   -1.909228   -2.063998
  H     -0.678700   -3.125622   -0.804674
  H      0.101349   -1.306003    0.781774
  H     -2.017822   -0.327356    1.296801
  H     -2.274477   -2.003183    0.807673
  H     -2.691382   -0.694428   -0.334384
  Cl     0.648601   -1.264156    2.946888

----------------------------
CARTESIAN COORDINATES (A.U.)
----------------------------
  NO LB      ZA    FRAG     MASS         X           Y           Z
   0 C     6.0000    0    12.011   -0.728144   -4.031988   -2.252550
   1 C     6.0000    0    12.011   -1.071333   -2.143566   -0.146339
   2 C     6.0000    0    12.011   -3.733397   -1.916880    0.832525
   3 I    25.0000*   0   126.900    0.261421    1.608410   -1.404744
   4 H     1.0000    0     1.008    1.246615   -4.151852   -2.890108
   5 H     1.0000    0     1.008   -1.927893   -3.607919   -3.900390
   6 H     1.0000    0     1.008   -1.282556   -5.906569   -1.520613
   7 H     1.0000    0     1.008    0.191521   -2.467989    1.477339
   8 H     1.0000    0     1.008   -3.813130   -0.618614    2.450599
   9 H     1.0000    0     1.008   -4.298139   -3.785468    1.526281
  10 H     1.0000    0     1.008   -5.085974   -1.312278   -0.631893
  11 Cl   17.0000    0    35.453    1.225678   -2.388909    5.568812
* core charge reduced due to ECP

--------------------------------
INTERNAL COORDINATES (ANGSTROEM)
--------------------------------
 C      0   0   0     0.000000000000     0.00000000     0.00000000
 C      1   0   0     1.507926789999     0.00000000     0.00000000
 C      2   1   0     1.505706484759   114.81875860     0.00000000
 I      2   1   3     2.209727716884   109.52777465   236.59198555
 H      1   2   3     1.099940432457   112.29323803   180.74422377
 H      1   2   3     1.101732501623   112.37231999    58.15540574
 H      1   2   3     1.104594126537   107.69685247   299.45258990
 H      2   1   3     1.101957307182   113.58016722   125.19608086
 H      3   2   1     1.098602901732   110.72484185   175.76217057
 H      3   2   1     1.096284828186   107.36065669    59.27257942
 H      3   2   1     1.102357508849   112.87651213   299.53515712
 Cl     8   2   1     2.233597288822   154.35254125   211.35434318

---------------------------
INTERNAL COORDINATES (A.U.)
---------------------------
 C      0   0   0     0.000000000000     0.00000000     0.00000000
 C      1   0   0     2.849568663101     0.00000000     0.00000000
 C      2   1   0     2.845372894263   114.81875860     0.00000000
 I      2   1   3     4.175780215446   109.52777465   236.59198555
 H      1   2   3     2.078586180970   112.29323803   180.74422377
 H      1   2   3     2.081972700908   112.37231999    58.15540574
 H      1   2   3     2.087380388293   107.69685247   299.45258990
 H      2   1   3     2.082397521847   113.58016722   125.19608086
 H      3   2   1     2.076058614204   110.72484185   175.76217057
 H      3   2   1     2.071678090045   107.36065669    59.27257942
 H      3   2   1     2.083153793397   112.87651213   299.53515712
 Cl     8   2   1     4.220887169343   154.35254125   211.35434318

[1631719808.550655] [comp0808:81510:0]            sys.c:618  UCX  ERROR shmget(size=2097152 flags=0xfb0) for mm_recv_desc failed: Operation not permitted, please check shared memory limits by 'ipcs -l'
[1631719808.556547] [comp0808:81511:0]            sys.c:618  UCX  ERROR shmget(size=2097152 flags=0xfb0) for mm_recv_desc failed: Operation not permitted, please check shared memory limits by 'ipcs -l'
[1631719808.560773] [comp0808:81512:0]            sys.c:618  UCX  ERROR shmget(size=2097152 flags=0xfb0) for mm_recv_desc failed: Operation not permitted, please check shared memory limits by 'ipcs -l'
[1631719808.562247] [comp0808:81513:0]            sys.c:618  UCX  ERROR shmget(size=2097152 flags=0xfb0) for mm_recv_desc failed: Operation not permitted, please check shared memory limits by 'ipcs -l'
[1631719808.583387] [comp0808:81510:0]            sys.c:618  UCX  ERROR shmget(size=2097152 flags=0xb80) for ucp_am_bufs failed: Operation not permitted, please check shared memory limits by 'ipcs -l'


           ************************************************************
           *        Program running with 4 parallel MPI-processes     *
[...]
  21   2.0000      -0.565755       -15.3950 
  22   2.0000      -0.463061       -12.6005 
  23   2.0000      -0.442765       -12.0483 
  24   2.0000      -0.418145       -11.3783 
  25   2.0000      -0.390620       -10.6293 
  26   2.0000      -0.356646        -9.7048 
  27   2.0000      -0.351197        -9.5566 
  28   2.0000      -0.305613        -8.3162 
  29   2.0000      -0.255335        -6.9480 
  30   2.0000      -0.255092        -6.9414 
  31   2.0000      -0.210057        -5.7160 
  32   2.0000      -0.208938        -5.6855 
  33   2.0000      -0.206401        -5.6165 
  34   0.0000      -0.011703        -0.3184 
  35   0.0000       0.088560         2.4098 
  36   0.0000       0.130072         3.5394 
  37   0.0000       0.140529         3.8240 
  38   0.0000       0.145615         3.9624 
  39   0.0000       0.177244         4.8231 
  40   0.0000       0.181942         4.9509 
  41   0.0000       0.197702         5.3797 
  42   0.0000       0.221231         6.0200 
  43   0.0000       0.250103         6.8056 
  44   0.0000       0.301655         8.2084 
  45   0.0000       0.363883         9.9017 
  46   0.0000       0.377150        10.2628 
  47   0.0000       0.390291        10.6204 
  48   0.0000       0.407395        11.0858 
  49   0.0000       0.420194        11.4341 
  50   0.0000       0.435727        11.8567 
  51   0.0000       0.438606        11.9351 
  52   0.0000       0.471486        12.8298 
  53   0.0000       0.486960        13.2509 
  54   0.0000       0.532997        14.5036 
  55   0.0000       0.586644        15.9634 
  56   0.0000       0.602038        16.3823 
  57   0.0000       0.634417        17.2634 
  58   0.0000       0.654614        17.8130 
  59   0.0000       0.657566        17.8933 
  60   0.0000       0.667778        18.1712 
  61   0.0000       0.676151        18.3990 
  62   0.0000       0.697821        18.9887 
  63   0.0000       0.704778        19.1780 
  64   0.0000       0.719690        19.5838 
  65   0.0000       0.725852        19.7515 
  66   0.0000       0.732830        19.9413 
  67   0.0000       0.766336        20.8530 
  68   0.0000       0.795583        21.6489 
  69   0.0000       0.801661        21.8143 
  70   0.0000       0.904669        24.6173 
  71   0.0000       0.926374        25.2079 
  72   0.0000       0.927542        25.2397 
  73   0.0000       0.929217        25.2853 
  74   0.0000       0.936161        25.4742 
  75   0.0000       0.953525        25.9467 
  76   0.0000       1.000306        27.2197 
  77   0.0000       1.036201        28.1965 
  78   0.0000       1.061507        28.8851 
  79   0.0000       1.074651        29.2427 
  80   0.0000       1.157844        31.5065 
  81   0.0000       1.186591        32.2888 
  82   0.0000       1.209874        32.9223 
  83   0.0000       1.343202        36.5504 
  84   0.0000       1.500099        40.8198 
  85   0.0000       1.535463        41.7821 
  86   0.0000       1.549180        42.1553 
  87   0.0000       1.552837        42.2548 
  88   0.0000       1.621684        44.1283 
  89   0.0000       1.737226        47.2723 
  90   0.0000       1.775667        48.3184 
  91   0.0000       1.792201        48.7683 
  92   0.0000       1.828848        49.7655 
  93   0.0000       1.832461        49.8638 
  94   0.0000       1.841371        50.1062 
  95   0.0000       1.863808        50.7168 
  96   0.0000       1.891553        51.4718 
  97   0.0000       1.911430        52.0127 
  98   0.0000       1.965187        53.4755 
  99   0.0000       2.029873        55.2357 
 100   0.0000       2.138203        58.1835 
 101   0.0000       2.173977        59.1569 
 102   0.0000       2.265307        61.6421 
 103   0.0000       2.277001        61.9604 
 104   0.0000       2.399051        65.2815 
 105   0.0000       2.412271        65.6412 
 106   0.0000       2.486854        67.6707 
 107   0.0000       2.578372        70.1611 
 108   0.0000       2.607958        70.9662 
 109   0.0000       2.627079        71.4865 
 110   0.0000       2.750727        74.8511 
 111   0.0000       2.870066        78.0985 
 112   0.0000       2.925908        79.6180 
 113   0.0000       2.932804        79.8057 
 114   0.0000       3.014020        82.0157 
 115   0.0000       3.046628        82.9030 
 116   0.0000       3.057960        83.2113 
 117   0.0000      18.656345       507.6650 
 118   0.0000      18.678625       508.2712 
 119   0.0000      18.988917       516.7147 
 120   0.0000      55.955340      1522.6222 

                    ********************************
                    * MULLIKEN POPULATION ANALYSIS *
                    ********************************

-----------------------
MULLIKEN ATOMIC CHARGES
-----------------------
   0 C :   -0.019724
   1 C :   -0.334214
   2 C :   -0.012862
   3 I :   -0.166087
   4 H :    0.059118
   5 H :    0.054220
   6 H :    0.060350
   7 H :    0.075928
   8 H :    0.043341
   9 H :    0.053125
  10 H :    0.051171
  11 Cl:   -0.864368
Sum of atomic charges:   -1.0000000

--------------------------------
MULLIKEN REDUCED ORBITAL CHARGES
--------------------------------
  0 C s       :     3.024976  s :     3.024976
      pz      :     0.979251  p :     2.967280
      px      :     1.025102
      py      :     0.962927
      dz2     :     0.004667  d :     0.027467
      dxz     :     0.006898
      dyz     :     0.006466
      dx2y2   :     0.007105
      dxy     :     0.002331
  1 C s       :     3.295912  s :     3.295912
      pz      :     1.058639  p :     2.997959
      px      :     1.080988
      py      :     0.858332
      dz2     :     0.006861  d :     0.040342
      dxz     :     0.010172
      dyz     :     0.007615
      dx2y2   :     0.009155
      dxy     :     0.006540
  2 C s       :     3.014760  s :     3.014760
      pz      :     1.001076  p :     2.970548
      px      :     0.933471
      py      :     1.036000
      dz2     :     0.003590  d :     0.027554
      dxz     :     0.007235
      dyz     :     0.005819
      dx2y2   :     0.007260
      dxy     :     0.003650
  3 I s       :     3.969345  s :     3.969345
      pz      :     3.909886  p :    11.160976
      px      :     3.907523
      py      :     3.343567
      dz2     :     2.004172  d :    10.035766
      dxz     :     2.001898
      dyz     :     2.010446
      dx2y2   :     2.011116
      dxy     :     2.008134
  4 H s       :     0.917123  s :     0.917123
      pz      :     0.005519  p :     0.023759
      px      :     0.013876
      py      :     0.004363
  5 H s       :     0.922028  s :     0.922028
      pz      :     0.010590  p :     0.023752
      px      :     0.008405
      py      :     0.004757
  6 H s       :     0.915331  s :     0.915331
      pz      :     0.005736  p :     0.024319
      px      :     0.005733
      py      :     0.012850
  7 H s       :     0.898470  s :     0.898470
      pz      :     0.014321  p :     0.025602
      px      :     0.008170
      py      :     0.003111
  8 H s       :     0.932962  s :     0.932962
      pz      :     0.011276  p :     0.023696
      px      :     0.003944
      py      :     0.008476
  9 H s       :     0.922629  s :     0.922629
      pz      :     0.006014  p :     0.024247
      px      :     0.005255
      py      :     0.012978
 10 H s       :     0.925279  s :     0.925279
      pz      :     0.009330  p :     0.023550
      px      :     0.008149
      py      :     0.006070
 11 Cls       :     5.989948  s :     5.989948
      pz      :     3.898922  p :    11.873860
      px      :     3.983135
      py      :     3.991804
      dz2     :     0.000437  d :     0.000560
      dxz     :     0.000077
      dyz     :     0.000032
      dx2y2   :     0.000010
      dxy     :     0.000004


                     *******************************
                     * LOEWDIN POPULATION ANALYSIS *
                     *******************************

----------------------
LOEWDIN ATOMIC CHARGES
----------------------
   0 C :   -0.082200
   1 C :   -0.115157
   2 C :   -0.081624
   3 I :   -0.047656
   4 H :    0.033739
   5 H :    0.031283
   6 H :    0.042803
   7 H :   -0.006648
   8 H :    0.025855
   9 H :    0.040488
  10 H :    0.028298
  11 Cl:   -0.869180

-------------------------------
LOEWDIN REDUCED ORBITAL CHARGES
-------------------------------
  0 C s       :     2.848191  s :     2.848191
      pz      :     1.042064  p :     3.161082
      px      :     1.070746
      py      :     1.048272
      dz2     :     0.011416  d :     0.072927
      dxz     :     0.018037
      dyz     :     0.018814
      dx2y2   :     0.019101
      dxy     :     0.005558
  1 C s       :     2.933258  s :     2.933258
      pz      :     1.077171  p :     3.091836
      px      :     1.090082
      py      :     0.924583
      dz2     :     0.014202  d :     0.090063
      dxz     :     0.023593
      dyz     :     0.018298
      dx2y2   :     0.021548
      dxy     :     0.012422
  2 C s       :     2.848110  s :     2.848110
      pz      :     1.063038  p :     3.160873
      px      :     1.021436
      py      :     1.076399
      dz2     :     0.009007  d :     0.072641
      dxz     :     0.019392
      dyz     :     0.015629
      dx2y2   :     0.019756
      dxy     :     0.008857
  3 I s       :     3.866161  s :     3.866161
      pz      :     3.893365  p :    11.137593
      px      :     3.891959
      py      :     3.352269
      dz2     :     2.005325  d :    10.043903
      dxz     :     2.002183
      dyz     :     2.012243
      dx2y2   :     2.013819
      dxy     :     2.010332
  4 H s       :     0.899917  s :     0.899917
      pz      :     0.015359  p :     0.066344
      px      :     0.038550
      py      :     0.012435
  5 H s       :     0.902187  s :     0.902187
      pz      :     0.030319  p :     0.066530
      px      :     0.022801
      py      :     0.013411
  6 H s       :     0.890940  s :     0.890940
      pz      :     0.015613  p :     0.066257
      px      :     0.014382
      py      :     0.036262
  7 H s       :     0.914292  s :     0.914292
      pz      :     0.050442  p :     0.092356
      px      :     0.028889
      py      :     0.013025
  8 H s       :     0.906649  s :     0.906649
      pz      :     0.032531  p :     0.067495
      px      :     0.012100
      py      :     0.022864
  9 H s       :     0.893224  s :     0.893224
      pz      :     0.015344  p :     0.066288
      px      :     0.014927
      py      :     0.036016
 10 H s       :     0.905175  s :     0.905175
      pz      :     0.026101  p :     0.066528
      px      :     0.024802
      py      :     0.015625
 11 Cls       :     5.982613  s :     5.982613
      pz      :     3.908603  p :    11.885954
      px      :     3.983235
      py      :     3.994117
      dz2     :     0.000494  d :     0.000612
      dxz     :     0.000069
      dyz     :     0.000036
      dx2y2   :     0.000009
      dxy     :     0.000004


                      *****************************
                      * MAYER POPULATION ANALYSIS *
                      *****************************

  NA   - Mulliken gross atomic population
  ZA   - Total nuclear charge
  QA   - Mulliken gross atomic charge
  VA   - Mayer's total valence
  BVA  - Mayer's bonded valence
  FA   - Mayer's free valence

  ATOM       NA         ZA         QA         VA         BVA        FA
  0 C      6.0197     6.0000    -0.0197     3.8852     3.8852    -0.0000
  1 C      6.3342     6.0000    -0.3342     3.9292     3.9292    -0.0000
  2 C      6.0129     6.0000    -0.0129     3.8868     3.8868    -0.0000
  3 I     25.1661    25.0000    -0.1661     1.0038     1.0038    -0.0000
  4 H      0.9409     1.0000     0.0591     0.9861     0.9861    -0.0000
  5 H      0.9458     1.0000     0.0542     0.9894     0.9894     0.0000
  6 H      0.9396     1.0000     0.0604     0.9891     0.9891    -0.0000
  7 H      0.9241     1.0000     0.0759     1.0895     1.0895    -0.0000
  8 H      0.9567     1.0000     0.0433     1.0194     1.0194    -0.0000
  9 H      0.9469     1.0000     0.0531     0.9948     0.9948    -0.0000
 10 H      0.9488     1.0000     0.0512     0.9892     0.9892    -0.0000
 11 Cl    17.8644    17.0000    -0.8644     0.2591     0.2591    -0.0000

  Mayer bond orders larger than 0.100000
B(  0-C ,  1-C ) :   1.0351 B(  0-C ,  4-H ) :   0.9671 B(  0-C ,  5-H ) :   0.9686 
B(  0-C ,  6-H ) :   0.9515 B(  1-C ,  2-C ) :   1.0474 B(  1-C ,  3-I ) :   0.9701 
B(  1-C ,  7-H ) :   0.8601 B(  2-C ,  8-H ) :   0.9584 B(  2-C ,  9-H ) :   0.9510 
B(  2-C , 10-H ) :   0.9667 B(  7-H , 11-Cl) :   0.2316 


------------------
HIRSHFELD ANALYSIS
------------------

Total integrated alpha density =     33.999781230
Total integrated beta density  =     33.999781230

  ATOM     CHARGE      SPIN    
   0 C   -0.074343    0.000000
   1 C    0.035901    0.000000
   2 C   -0.078436    0.000000
   3 I   -0.207963    0.000000
   4 H    0.030519    0.000000
   5 H    0.028790    0.000000
   6 H    0.038008    0.000000
   7 H    0.003566    0.000000
   8 H    0.023138    0.000000
   9 H    0.036024    0.000000
  10 H    0.025549    0.000000
  11 Cl  -0.860316    0.000000

  TOTAL  -0.999562    0.000000

-------
TIMINGS
-------

Total SCF time: 0 days 0 hours 0 min 5 sec 

Total time                  ....       5.274 sec
Sum of individual times     ....       4.970 sec  ( 94.2%)

Fock matrix formation       ....       4.284 sec  ( 81.2%)
  Split-RI-J                ....       0.690 sec  ( 16.1% of F)
  Chain of spheres X        ....       2.177 sec  ( 50.8% of F)
  COS-X 1 center corr.      ....       0.000 sec  (  0.0% of F)
  XC integration            ....       0.297 sec  (  6.9% of F)
    Basis function eval.    ....       0.106 sec  ( 35.6% of XC)
    Density eval.           ....       0.047 sec  ( 15.9% of XC)
    XC-Functional eval.     ....       0.025 sec  (  8.3% of XC)
    XC-Potential eval.      ....       0.062 sec  ( 20.8% of XC)
Diagonalization             ....       0.002 sec  (  0.0%)
Density matrix formation    ....       0.001 sec  (  0.0%)
Population analysis         ....       0.035 sec  (  0.7%)
Initial guess               ....       0.005 sec  (  0.1%)
Orbital Transformation      ....       0.000 sec  (  0.0%)
Orbital Orthonormalization  ....       0.002 sec  (  0.0%)
DIIS solution               ....       0.000 sec  (  0.0%)
SOSCF solution              ....       0.004 sec  (  0.1%)
Grid generation             ....       0.639 sec  ( 12.1%)


-------------------------------------------------------------------------------
                          DFT DISPERSION CORRECTION                            
                                                                               
                              DFTD3 V3.1  Rev 1                                
                          USING Becke-Johnson damping                          
-------------------------------------------------------------------------------
The PBE0 functional is recognized
Active option DFTDOPT                   ...         4   

molecular C6(AA) [au] = 2863.655334 


            DFT-D V3
 parameters
 s6 scaling factor         :     1.0000 
 a1 scaling factor         :     0.4145 
 s8 scaling factor         :     1.2177 
 a2 scaling factor         :     4.8593 
 ad hoc parameters k1-k3   :    16.0000     1.3333    -4.0000 

 Edisp/kcal,au: -6.356216453638  -0.010129274598 
 E6   /kcal   :  -3.715640436 
 E8   /kcal   :  -2.640576017 
 % E8         :  41.543204773 

-------------------------   ----------------
Dispersion correction           -0.010129275
-------------------------   ----------------


-------------------------   --------------------
FINAL SINGLE POINT ENERGY      -876.089094360093
-------------------------   --------------------

                                *** OPTIMIZATION RUN DONE ***

                            ***************************************
                            *     ORCA property calculations      *
                            ***************************************

                                    ---------------------
                                    Active property flags
                                    ---------------------
   (+) Dipole Moment


------------------------------------------------------------------------------
                       ORCA ELECTRIC PROPERTIES CALCULATION
------------------------------------------------------------------------------

Dipole Moment Calculation                       ... on
Quadrupole Moment Calculation                   ... off
Polarizability Calculation                      ... off
GBWName                                         ... manual_reactants_359_opt.gbw
Electron density file                           ... manual_reactants_359_opt.scfp
The origin for moment calculation is the CENTER OF MASS  = (-0.045065,  0.013986 -0.020219)

-------------
DIPOLE MOMENT
-------------
                                X             Y             Z
Electronic contribution:     18.02447      71.64619     -54.48593
Nuclear contribution   :    -19.41040     -70.55395      49.65847
                        -----------------------------------------
Total Dipole Moment    :     -1.38593       1.09224      -4.82746
                        -----------------------------------------
Magnitude (a.u.)       :      5.13986
Magnitude (Debye)      :     13.06448



--------------------
Rotational spectrum 
--------------------
 
Rotational constants in cm-1:     0.074939     0.028143     0.023168 
Rotational constants in MHz :  2246.616860   843.693258   694.552229 

 Dipole components along the rotational axes: 
x,y,z [a.u.] :    -4.745605    -1.965057     0.189523 
x,y,z [Debye]:   -12.062371    -4.994778     0.481729 

 
[1631719922.958221] [comp0808:83852:0]            sys.c:618  UCX  ERROR shmget(size=2097152 flags=0xfb0) for mm_recv_desc failed: Operation not permitted, please check shared memory limits by 'ipcs -l'
[1631719922.968677] [comp0808:83850:0]            sys.c:618  UCX  ERROR shmget(size=2097152 flags=0xfb0) for mm_recv_desc failed: Operation not permitted, please check shared memory limits by 'ipcs -l'
[1631719922.972888] [comp0808:83853:0]            sys.c:618  UCX  ERROR shmget(size=2097152 flags=0xfb0) for mm_recv_desc failed: Operation not permitted, please check shared memory limits by 'ipcs -l'
[1631719922.988047] [comp0808:83851:0]            sys.c:618  UCX  ERROR shmget(size=2097152 flags=0xfb0) for mm_recv_desc failed: Operation not permitted, please check shared memory limits by 'ipcs -l'
[1631719923.009366] [comp0808:83852:0]            sys.c:618  UCX  ERROR shmget(size=2097152 flags=0xb80) for ucp_am_bufs failed: Operation not permitted, please check shared memory limits by 'ipcs -l'
[1631719923.009371] [comp0808:83853:0]            sys.c:618  UCX  ERROR shmget(size=2097152 flags=0xb80) for ucp_am_bufs failed: Operation not permitted, please check shared memory limits by 'ipcs -l'
[1631719923.010029] [comp0808:83850:0]            sys.c:618  UCX  ERROR shmget(size=2097152 flags=0xb80) for ucp_am_bufs failed: Operation not permitted, please check shared memory limits by 'ipcs -l'
[1631719923.012897] [comp0808:83851:0]            sys.c:618  UCX  ERROR shmget(size=2097152 flags=0xb80) for ucp_am_bufs failed: Operation not permitted, please check shared memory limits by 'ipcs -l'

Timings for individual modules:

Sum of individual times         ...      132.436 sec (=   2.207 min)
GTO integral calculation        ...       13.549 sec (=   0.226 min)  10.2 %
SCF iterations                  ...       88.942 sec (=   1.482 min)  67.2 %
SCF Gradient evaluation         ...       29.079 sec (=   0.485 min)  22.0 %
Geometry relaxation             ...        0.867 sec (=   0.014 min)   0.7 %
                             ****ORCA TERMINATED NORMALLY****
TOTAL RUN TIME: 0 days 0 hours 2 minutes 15 seconds 32 msec
