
                                 *****************
                                 * O   R   C   A *
                                 *****************

           --- An Ab Initio, DFT and Semiempirical electronic structure package ---

                  #######################################################
                  #                        -***-                        #
                  #          Department of theory and spectroscopy      #
                  #               Directorship: Frank Neese             #
                  #        Max Planck Institute fuer Kohlenforschung    #
                  #                Kaiser Wilhelm Platz 1               #
                  #                 D-45470 Muelheim/Ruhr               #
                  #                      Germany                        #
                  #                                                     #
                  #                  All rights reserved                #
                  #                        -***-                        #
                  #######################################################


                         Program Version 4.2.1 -  RELEASE  -


 With contributions from (in alphabetic order):
   Daniel Aravena         : Magnetic Suceptibility
   Michael Atanasov       : Ab Initio Ligand Field Theory (pilot matlab implementation)
   Alexander A. Auer      : GIAO ZORA, VPT2
   Ute Becker             : Parallelization
   Giovanni Bistoni       : ED, misc. LED, open-shell LED, HFLD
   Martin Brehm           : Molecular dynamics
   Dmytro Bykov           : SCF Hessian
   Vijay G. Chilkuri      : MRCI spin determinant printing, contributions to CSF-ICE
   Dipayan Datta          : RHF DLPNO-CCSD density
   Achintya Kumar Dutta   : EOM-CC, STEOM-CC
   Dmitry Ganyushin       : Spin-Orbit,Spin-Spin,Magnetic field MRCI
   Miquel Garcia          : C-PCM Hessian, Gaussian charge scheme
   Yang Guo               : DLPNO-NEVPT2, CIM, IAO-localization
   Andreas Hansen         : Spin unrestricted coupled pair/coupled cluster methods
   Benjamin Helmich-Paris : CASSCF linear response (MC-RPA)
   Lee Huntington         : MR-EOM, pCC
   Robert Izsak           : Overlap fitted RIJCOSX, COSX-SCS-MP3, EOM
   Christian Kollmar      : KDIIS, OOCD, Brueckner-CCSD(T), CCSD density
   Simone Kossmann        : Meta GGA functionals, TD-DFT gradient, OOMP2, MP2 Hessian
   Martin Krupicka        : AUTO-CI
   Lucas Lang             : DCDCAS
   Dagmar Lenk            : GEPOL surface, SMD
   Dimitrios Liakos       : Extrapolation schemes; Compound Job, initial MDCI parallelization
   Dimitrios Manganas     : Further ROCIS development; embedding schemes
   Dimitrios Pantazis     : SARC Basis sets
   Taras Petrenko         : DFT Hessian,TD-DFT gradient, ASA, ECA, R-Raman, ABS, FL, XAS/XES, NRVS
   Peter Pinski           : DLPNO-MP2, DLPNO-MP2 Gradient
   Christoph Reimann      : Effective Core Potentials
   Marius Retegan         : Local ZFS, SOC
   Christoph Riplinger    : Optimizer, TS searches, QM/MM, DLPNO-CCSD(T), (RO)-DLPNO pert. Triples
   Tobias Risthaus        : Range-separated hybrids, TD-DFT gradient, RPA, STAB
   Michael Roemelt        : Original ROCIS implementation
   Masaaki Saitow         : Open-shell DLPNO-CCSD energy and density
   Barbara Sandhoefer     : DKH picture change effects
   Avijit Sen             : IP-ROCIS
   Kantharuban Sivalingam : CASSCF convergence, NEVPT2, FIC-MRCI
   Bernardo de Souza      : ESD, SOC TD-DFT
   Georgi Stoychev        : AutoAux, RI-MP2 NMR
   Willem Van den Heuvel  : Paramagnetic NMR
   Boris Wezisla          : Elementary symmetry handling
   Frank Wennmohs         : Technical directorship


 We gratefully acknowledge several colleagues who have allowed us to
 interface, adapt or use parts of their codes:
   Stefan Grimme, W. Hujo, H. Kruse,             : VdW corrections, initial TS optimization,
                  C. Bannwarth                     DFT functionals, gCP, sTDA/sTD-DF
   Ed Valeev, F. Pavosevic, A. Kumar             : LibInt (2-el integral package), F12 methods
   Garnet Chan, S. Sharma, J. Yang, R. Olivares  : DMRG
   Ulf Ekstrom                                   : XCFun DFT Library
   Mihaly Kallay                                 : mrcc  (arbitrary order and MRCC methods)
   Andreas Klamt, Michael Diedenhofen            : otool_cosmo (COSMO solvation model)
   Jiri Pittner, Ondrej Demel                    : Mk-CCSD
   Frank Weinhold                                : gennbo (NPA and NBO analysis)
   Christopher J. Cramer and Donald G. Truhlar   : smd solvation model
   Lars Goerigk                                  : TD-DFT with DH, B97 family of functionals
   V. Asgeirsson, H. Jonsson                     : NEB implementation
   FAccTs GmbH                                   : IRC, NEB, NEB-TS, Multilevel, MM, QM/MM, CI optimization
   S Lehtola, MJT Oliveira, MAL Marques          : LibXC Library


 Your calculation uses the libint2 library for the computation of 2-el integrals
 For citations please refer to: http://libint.valeyev.net

 Your ORCA version has been built with support for libXC version: 4.2.3
 For citations please refer to: https://tddft.org/programs/libxc/

 This ORCA versions uses:
   CBLAS   interface :  Fast vector & matrix operations
   LAPACKE interface :  Fast linear algebra routines
   SCALAPACK package :  Parallel linear algebra routines


Your calculation utilizes the atom-pairwise dispersion correction
with the Becke-Johnson damping scheme (D3BJ)
Cite in your paper:
S.Grimme, S.Ehrlich, L.Goerigk, J Comput Chem, (2011), 32, 1456–1465 
S.Grimme, J.Antony, S.Ehrlich and H.Krieg, J.Chem.Phys., 132, (2010), 154104 
   

----- Orbital basis set information -----
Your calculation utilizes the basis: def2-SVP
   F. Weigend and R. Ahlrichs, Phys. Chem. Chem. Phys. 7, 3297 (2005).

----- AuxJ basis set information -----
Your calculation utilizes the auxiliary basis: def2/J
   F. Weigend, Phys. Chem. Chem. Phys. 8, 1057 (2006).

================================================================================
                                        WARNINGS
                       Please study these warnings very carefully!
================================================================================


WARNING: Geometry Optimization
  ===> : Switching off AutoStart
         For restart on a previous wavefunction, please use MOREAD

INFO   : the flag for use of LIBINT has been found!

================================================================================
                                       INPUT FILE
================================================================================
NAME = manual_reactants_345_opt.inp
|  1> ! Opt PBE0 RIJCOSX D3BJ def2-SVP def2/J CPCM(DMF)
|  2> %geom MaxIter 100 end
|  3> %output 
|  4> xyzfile=True 
|  5> end 
|  6> %scf 
|  7> maxiter 250 
|  8> end
|  9> %output
| 10> Print[P_Hirshfeld] = 1
| 11> end
| 12> % maxcore
| 13> 4000
| 14> %pal nprocs 4
| 15> end
| 16> *xyz -1 1
| 17> C     1.04168  -0.64831   1.14822
| 18> C     0.22273  -0.60499  -0.14657
| 19> C     1.16109  -0.54283  -1.35060
| 20> C    -0.65168  -1.85561  -0.22933
| 21> C    -0.62482   0.66143  -0.05459
| 22> Br   -1.75392   0.99893  -1.62705
| 23> H     0.39310  -0.68064   2.03806
| 24> H     1.67858  -1.54512   1.17624
| 25> H     1.70825   0.22198   1.25107
| 26> H     0.59380  -0.53683  -2.29396
| 27> H     1.82993  -1.41747  -1.36104
| 28> H     1.78574   0.36461  -1.32179
| 29> H    -1.25923  -1.85963  -1.14764
| 30> H    -1.33437  -1.92445   0.63300
| 31> H    -0.01755  -2.75627  -0.23487
| 32> H    -1.32546   0.61944   0.79027
| 33> H     0.00504   1.55623   0.04077
| 34> Cl    3.44837  -1.01208   3.89367
| 35> *
| 36> 
| 37>                          ****END OF INPUT****
================================================================================

                       *****************************
                       * Geometry Optimization Run *
                       *****************************

Geometry optimization settings:
Update method            Update   .... BFGS
Choice of coordinates    CoordSys .... Z-matrix Internals
Initial Hessian          InHess   .... Almoef's Model

Convergence Tolerances:
Energy Change            TolE     ....  5.0000e-06 Eh
Max. Gradient            TolMAXG  ....  3.0000e-04 Eh/bohr
RMS Gradient             TolRMSG  ....  1.0000e-04 Eh/bohr
Max. Displacement        TolMAXD  ....  4.0000e-03 bohr
RMS Displacement         TolRMSD  ....  2.0000e-03 bohr
Strict Convergence                ....  False
------------------------------------------------------------------------------
                        ORCA OPTIMIZATION COORDINATE SETUP
------------------------------------------------------------------------------

The optimization will be done in new redundant internal coordinates
Making redundant internal coordinates   ...  (new redundants) done
Evaluating the initial hessian          ...  (Almloef) done
Evaluating the coordinates              ...  done
Calculating the B-matrix                .... done
Calculating the G-matrix                .... done
Diagonalizing the G-matrix              .... done
The first mode is                       ....   45
The number of degrees of freedom        ....   48

    -----------------------------------------------------------------
                    Redundant Internal Coordinates


    -----------------------------------------------------------------
         Definition                    Initial Value    Approx d2E/dq
    -----------------------------------------------------------------
      1. B(C   1,C   0)                  1.5327         0.369946   
      2. B(C   2,C   1)                  1.5278         0.376652   
      3. B(C   3,C   1)                  1.5282         0.376009   
      4. B(C   4,C   1)                  1.5266         0.378218   
      5. B(Br  5,C   4)                  1.9650         0.253971   
      6. B(H   6,C   0)                  1.1016         0.345081   
      7. B(H   7,C   0)                  1.1003         0.346709   
      8. B(H   8,C   0)                  1.1010         0.345782   
      9. B(H   9,C   2)                  1.1008         0.346080   
     10. B(H  10,C   2)                  1.1011         0.345694   
     11. B(H  11,C   2)                  1.1020         0.344535   
     12. B(H  12,C   3)                  1.1011         0.345708   
     13. B(H  13,C   3)                  1.1020         0.344563   
     14. B(H  14,C   3)                  1.1015         0.345182   
     15. B(H  15,C   4)                  1.0984         0.349178   
     16. B(H  16,C   4)                  1.0984         0.349157   
     17. B(Cl 17,H   8)                  3.3962         0.000169   
     18. B(Cl 17,H   7)                  3.2864         0.000253   
     19. B(Cl 17,H   6)                  3.5900         0.000083   
     20. B(Cl 17,C   0)                  3.6691         0.000324   
     21. A(C   1,C   0,Cl 17)          170.2090         0.147711   
     22. A(H   6,C   0,Cl 17)           77.2235         0.138985   
     23. A(H   7,C   0,H   8)          106.9435         0.287286   
     24. A(H   6,C   0,H   8)          107.7088         0.287075   
     25. A(C   1,C   0,H   7)          110.7224         0.321794   
     26. A(H   8,C   0,Cl 17)           67.1303         0.139008   
     27. A(H   6,C   0,H   7)          107.2358         0.287195   
     28. A(C   1,C   0,H   8)          112.3372         0.321653   
     29. A(C   1,C   0,H   6)          111.6318         0.321546   
     30. A(H   7,C   0,Cl 17)           61.3443         0.139038   
     31. A(C   2,C   1,C   3)          110.0016         0.364266   
     32. A(C   0,C   1,C   2)          109.8005         0.363255   
     33. A(C   0,C   1,C   3)          109.1686         0.363149   
     34. A(C   3,C   1,C   4)          111.3746         0.364524   
     35. A(C   0,C   1,C   4)          105.6164         0.363513   
     36. A(C   2,C   1,C   4)          110.7764         0.364631   
     37. A(C   1,C   2,H  10)          110.3793         0.322588   
     38. A(C   1,C   2,H   9)          111.0434         0.322647   
     39. A(H  10,C   2,H  11)          108.0603         0.286993   
     40. A(H   9,C   2,H  11)          108.0604         0.287043   
     41. A(C   1,C   2,H  11)          111.1642         0.322410   
     42. A(H   9,C   2,H  10)          108.0130         0.287193   
     43. A(H  13,C   3,H  14)          108.0288         0.286930   
     44. A(H  12,C   3,H  14)          108.0872         0.287079   
     45. A(C   1,C   3,H  14)          109.8771         0.322419   
     46. A(H  12,C   3,H  13)          108.0930         0.286998   
     47. A(C   1,C   3,H  13)          111.2970         0.322324   
     48. A(C   1,C   3,H  12)          111.3372         0.322500   
     49. A(H  15,C   4,H  16)          109.2777         0.288042   
     50. A(Br  5,C   4,H  16)          105.0135         0.321330   
     51. A(C   1,C   4,H  16)          111.2635         0.323335   
     52. A(C   1,C   4,Br  5)          114.4099         0.362529   
     53. A(Br  5,C   4,H  15)          104.8066         0.321333   
     54. A(C   1,C   4,H  15)          111.6396         0.323338   
     55. D(C   2,C   1,C   0,H   6)    179.2715         0.011596   
     56. D(C   2,C   1,C   0,H   8)     58.1593         0.011596   
     57. D(C   4,C   1,C   0,H   6)     59.7931         0.011596   
     58. D(C   3,C   1,C   0,H   8)    178.8254         0.011596   
     59. D(C   3,C   1,C   0,H   7)     59.3329         0.011596   
     60. D(C   4,C   1,C   0,Cl 17)   -146.1708         0.011596   
     61. D(C   4,C   1,C   0,H   8)    -61.3192         0.011596   
     62. D(C   4,C   1,C   0,H   7)    179.1883         0.011596   
     63. D(C   2,C   1,C   0,H   7)    -61.3332         0.011596   
     64. D(C   3,C   1,C   0,Cl 17)     93.9737         0.011596   
     65. D(C   2,C   1,C   0,Cl 17)    -26.6924         0.011596   
     66. D(C   3,C   1,C   0,H   6)    -60.0623         0.011596   
     67. D(H   9,C   2,C   1,C   0)    178.5546         0.011317   
     68. D(H   9,C   2,C   1,C   3)     58.3933         0.011317   
     69. D(H  11,C   2,C   1,C   3)    178.7346         0.011317   
     70. D(H   9,C   2,C   1,C   4)    -65.1753         0.011317   
     71. D(H  10,C   2,C   1,C   4)    175.0643         0.011317   
     72. D(H  10,C   2,C   1,C   3)    -61.3671         0.011317   
     73. D(H  10,C   2,C   1,C   0)     58.7941         0.011317   
     74. D(H  11,C   2,C   1,C   4)     55.1660         0.011317   
     75. D(H  11,C   2,C   1,C   0)    -61.1042         0.011317   
     76. D(H  14,C   3,C   1,C   4)   -176.6863         0.011281   
     77. D(H  14,C   3,C   1,C   2)     60.0949         0.011281   
     78. D(H  14,C   3,C   1,C   0)    -60.4482         0.011281   
     79. D(H  13,C   3,C   1,C   4)    -57.0718         0.011281   
     80. D(H  13,C   3,C   1,C   2)    179.7093         0.011281   
     81. D(H  13,C   3,C   1,C   0)     59.1663         0.011281   
     82. D(H  12,C   3,C   1,C   4)     63.6007         0.011281   
     83. D(H  12,C   3,C   1,C   2)    -59.6182         0.011281   
     84. D(H  12,C   3,C   1,C   0)    179.8388         0.011281   
     85. D(Br  5,C   4,C   1,C   0)    178.3945         0.011407   
     86. D(H  16,C   4,C   1,C   2)    -59.2445         0.011407   
     87. D(H  16,C   4,C   1,C   0)     59.5872         0.011407   
     88. D(H  15,C   4,C   1,C   3)     55.6014         0.011407   
     89. D(H  15,C   4,C   1,C   2)    178.3768         0.011407   
     90. D(H  15,C   4,C   1,C   0)    -62.7915         0.011407   
     91. D(Br  5,C   4,C   1,C   3)    -63.2126         0.011407   
     92. D(H  16,C   4,C   1,C   3)    177.9801         0.011407   
     93. D(Br  5,C   4,C   1,C   2)     59.5628         0.011407   
    -----------------------------------------------------------------

Number of atoms                         .... 18
Number of degrees of freedom            .... 93

         *************************************************************
         *                GEOMETRY OPTIMIZATION CYCLE   1            *
         *************************************************************
---------------------------------
CARTESIAN COORDINATES (ANGSTROEM)
---------------------------------
  C      1.041680   -0.648310    1.148220
  C      0.222730   -0.604990   -0.146570
  C      1.161090   -0.542830   -1.350600
  C     -0.651680   -1.855610   -0.229330
  C     -0.624820    0.661430   -0.054590
  Br    -1.753920    0.998930   -1.627050
  H      0.393100   -0.680640    2.038060
  H      1.678580   -1.545120    1.176240
  H      1.708250    0.221980    1.251070
  H      0.593800   -0.536830   -2.293960
  H      1.829930   -1.417470   -1.361040
  H      1.785740    0.364610   -1.321790
  H     -1.259230   -1.859630   -1.147640
  H     -1.334370   -1.924450    0.633000
  H     -0.017550   -2.756270   -0.234870
  H     -1.325460    0.619440    0.790270
  H      0.005040    1.556230    0.040770
  Cl     3.448370   -1.012080    3.893670

----------------------------
CARTESIAN COORDINATES (A.U.)
----------------------------
  NO LB      ZA    FRAG     MASS         X           Y           Z
   0 C     6.0000    0    12.011    1.968490   -1.225128    2.169821
   1 C     6.0000    0    12.011    0.420899   -1.143265   -0.276977
   2 C     6.0000    0    12.011    2.194142   -1.025800   -2.552264
   3 C     6.0000    0    12.011   -1.231497   -3.506595   -0.433371
   4 C     6.0000    0    12.011   -1.180739    1.249922   -0.103160
   5 Br   35.0000    0    79.900   -3.314428    1.887704   -3.074679
   6 H     1.0000    0     1.008    0.742851   -1.286223    3.851375
   7 H     1.0000    0     1.008    3.172056   -2.919854    2.222771
   8 H     1.0000    0     1.008    3.228125    0.419481    2.364180
   9 H     1.0000    0     1.008    1.122119   -1.014462   -4.334956
  10 H     1.0000    0     1.008    3.458067   -2.678630   -2.571993
  11 H     1.0000    0     1.008    3.374560    0.689013   -2.497821
  12 H     1.0000    0     1.008   -2.379600   -3.514191   -2.168725
  13 H     1.0000    0     1.008   -2.521594   -3.636683    1.196197
  14 H     1.0000    0     1.008   -0.033165   -5.208595   -0.443840
  15 H     1.0000    0     1.008   -2.504756    1.170572    1.493394
  16 H     1.0000    0     1.008    0.009524    2.940849    0.077044
  17 Cl   17.0000    0    35.453    6.516475   -1.912554    7.357970

--------------------------------
INTERNAL COORDINATES (ANGSTROEM)
--------------------------------
 C      0   0   0     0.000000000000     0.00000000     0.00000000
 C      1   0   0     1.532656800787     0.00000000     0.00000000
 C      2   1   0     1.527766865755   109.80051212     0.00000000
 C      2   1   3     1.528231805094   109.16862268   120.66613083
 C      2   1   3     1.526637134128   105.61642719   240.52156469
 Br     5   2   1     1.965045422274   114.40993985   178.39449625
 H      1   2   3     1.101597236244   111.63180271   179.27153623
 H      1   2   3     1.100315821253   110.72240354   298.66678078
 H      1   2   3     1.101044218685   112.33724262    58.15926278
 H      3   2   1     1.100809717299   111.04336601   178.55457936
 H      3   2   1     1.101113558540   110.37934806    58.79410257
 H      3   2   1     1.102027673065   111.16419146   298.89583161
 H      4   2   1     1.101102365359   111.33718510   179.83876822
 H      4   2   1     1.102006175391   111.29701410    59.16629586
 H      4   2   1     1.101517128373   109.87706564   299.55182909
 H      5   2   1     1.098384263043   111.63957890   297.20853200
 H      5   2   1     1.098400741624   111.26350545    59.58721576
 Cl     8   1   2     3.286443988660   101.57028629   173.67566639

---------------------------
INTERNAL COORDINATES (A.U.)
---------------------------
 C      0   0   0     0.000000000000     0.00000000     0.00000000
 C      1   0   0     2.896301610780     0.00000000     0.00000000
 C      2   1   0     2.887060972757   109.80051212     0.00000000
 C      2   1   3     2.887939580775   109.16862268   120.66613083
 C      2   1   3     2.884926089377   105.61642719   240.52156469
 Br     5   2   1     3.713397688813   114.40993985   178.39449625
 H      1   2   3     2.081717086385   111.63180271   179.27153623
 H      1   2   3     2.079295562989   110.72240354   298.66678078
 H      1   2   3     2.080672034652   112.33724262    58.15926278
 H      3   2   1     2.080228891254   111.04336601   178.55457936
 H      3   2   1     2.080803067988   110.37934806    58.79410257
 H      3   2   1     2.082530494094   111.16419146   298.89583161
 H      4   2   1     2.080781915942   111.33718510   179.83876822
 H      4   2   1     2.082489869379   111.29701410    59.16629586
 H      4   2   1     2.081565704449   109.87706564   299.55182909
 H      5   2   1     2.075645446960   111.63957890   297.20853200
 H      5   2   1     2.075676586965   111.26350545    59.58721576
 Cl     8   1   2     6.210479093039   101.57028629   173.67566639

---------------------
BASIS SET INFORMATION
---------------------
There are 4 groups of distinct atoms

 Group   1 Type C   : 7s4p1d contracted to 3s2p1d pattern {511/31/1}
 Group   2 Type Br  : 14s10p6d contracted to 5s4p3d pattern {63311/5311/411}
 Group   3 Type H   : 4s1p contracted to 2s1p pattern {31/1}
 Group   4 Type Cl  : 10s7p1d contracted to 4s3p1d pattern {5311/511/1}

Atom   0C    basis set group =>   1
Atom   1C    basis set group =>   1
Atom   2C    basis set group =>   1
Atom   3C    basis set group =>   1
Atom   4C    basis set group =>   1
Atom   5Br   basis set group =>   2
Atom   6H    basis set group =>   3
Atom   7H    basis set group =>   3
Atom   8H    basis set group =>   3
Atom   9H    basis set group =>   3
Atom  10H    basis set group =>   3
Atom  11H    basis set group =>   3
Atom  12H    basis set group =>   3
Atom  13H    basis set group =>   3
Atom  14H    basis set group =>   3
Atom  15H    basis set group =>   3
Atom  16H    basis set group =>   3
Atom  17Cl   basis set group =>   4
---------------------------------
AUXILIARY/J BASIS SET INFORMATION
---------------------------------
There are 4 groups of distinct atoms

 Group   1 Type C   : 12s5p4d2f1g contracted to 6s4p3d1f1g pattern {711111/2111/211/2/1}
 Group   2 Type Br  : 19s5p5d3f1g contracted to 8s4p3d2f1g pattern {121111111/2111/311/21/1}
 Group   3 Type H   : 5s2p1d contracted to 3s1p1d pattern {311/2/1}
 Group   4 Type Cl  : 14s5p5d2f1g contracted to 8s4p3d1f1g pattern {71111111/2111/311/2/1}

Atom   0C    basis set group =>   1
Atom   1C    basis set group =>   1
Atom   2C    basis set group =>   1
Atom   3C    basis set group =>   1
Atom   4C    basis set group =>   1
Atom   5Br   basis set group =>   2
Atom   6H    basis set group =>   3
Atom   7H    basis set group =>   3
Atom   8H    basis set group =>   3
Atom   9H    basis set group =>   3
Atom  10H    basis set group =>   3
Atom  11H    basis set group =>   3
Atom  12H    basis set group =>   3
Atom  13H    basis set group =>   3
Atom  14H    basis set group =>   3
Atom  15H    basis set group =>   3
Atom  16H    basis set group =>   3
Atom  17Cl   basis set group =>   4
[1631719764.887844] [comp0802:138202:0]            sys.c:618  UCX  ERROR shmget(size=2097152 flags=0xfb0) for mm_recv_desc failed: Operation not permitted, please check shared memory limits by 'ipcs -l'
[1631719764.896499] [comp0802:138204:0]            sys.c:618  UCX  ERROR shmget(size=2097152 flags=0xfb0) for mm_recv_desc failed: Operation not permitted, please check shared memory limits by 'ipcs -l'
[1631719764.908520] [comp0802:138203:0]            sys.c:618  UCX  ERROR shmget(size=2097152 flags=0xfb0) for mm_recv_desc failed: Operation not permitted, please check shared memory limits by 'ipcs -l'
[1631719764.908570] [comp0802:138205:0]            sys.c:618  UCX  ERROR shmget(size=2097152 flags=0xfb0) for mm_recv_desc failed: Operation not permitted, please check shared memory limits by 'ipcs -l'
[1631719764.928907] [comp0802:138202:0]            sys.c:618  UCX  ERROR shmget(size=2097152 flags=0xb80) for ucp_am_bufs failed: Operation not permitted, please check shared memory limits by 'ipcs -l'
[1631719764.929601] [comp0802:138205:0]            sys.c:618  UCX  ERROR shmget(size=2097152 flags=0xb80) for ucp_am_bufs failed: Operation not permitted, please check shared memory limits by 'ipcs -l'
[1631719764.934183] [comp0802:138204:0]            sys.c:618  UCX  ERROR shmget(size=2097152 flags=0xb80) for ucp_am_bufs failed: Operation not permitted, please check shared memory limits by 'ipcs -l'
[1631719764.935449] [comp0802:138203:0]            sys.c:618  UCX  ERROR shmget(size=2097152 flags=0xb80) for ucp_am_bufs failed: Operation not permitted, please check shared memory limits by 'ipcs -l'


           ************************************************************
           *        Program running with 4 parallel MPI-processes     *
           *              working on a common directory               *
           ************************************************************
------------------------------------------------------------------------------
                           ORCA GTO INTEGRAL CALCULATION
                           -- RI-GTO INTEGRALS CHOSEN --
------------------------------------------------------------------------------

                         BASIS SET STATISTICS AND STARTUP INFO

Gaussian basis set:
 # of primitive gaussian shells          ...  163
 # of primitive gaussian functions       ...  307
 # of contracted shells                  ...   83
 # of contracted basis functions         ...  175
 Highest angular momentum                ...    2
 Maximum contraction depth               ...    6
Auxiliary gaussian basis set:
 # of primitive gaussian shells          ...  268
 # of primitive gaussian functions       ...  692
 # of contracted shells                  ...  165
 # of contracted aux-basis functions     ...  475
 Highest angular momentum                ...    4
 Maximum contraction depth               ...   12
Ratio of auxiliary to basis functions    ...  2.71
Integral package used                  ... LIBINT
 One Electron integrals                  ... done
 Ordering auxiliary basis shells         ... done
 Integral threshhold             Thresh  ...  2.500e-11
 Primitive cut-off               TCut    ...  2.500e-12
 Pre-screening matrix                    ... done
 Shell pair data                         ... 
 Ordering of the shell pairs             ... done (   0.000 sec) 3110 of 3486 pairs
 Determination of significant pairs      ... done (   0.000 sec)
 Creation of shell pair data             ... done (   0.000 sec)
 Storage of shell pair data              ... done (   0.005 sec)
 Shell pair data done in (   0.006 sec)
 Computing two index integrals           ... done
 Cholesky decomposition of the V-matrix  ... done


Timings:
 Total evaluation time                   ...   0.590 sec (  0.010 min)
 One electron matrix time                ...   0.032 sec (  0.001 min) =  5.4%
 Schwartz matrix evaluation time         ...   0.133 sec (  0.002 min) = 22.5%
 Two index repulsion integral time       ...   0.005 sec (  0.000 min) =  0.8%
 Cholesky decomposition of V             ...   0.379 sec (  0.006 min) = 64.3%
 Three index repulsion integral time     ...   0.000 sec (  0.000 min) =  0.0%

[1631719767.761147] [comp0802:138229:0]            sys.c:618  UCX  ERROR shmget(size=2097152 flags=0xfb0) for mm_recv_desc failed: Operation not permitted, please check shared memory limits by 'ipcs -l'
[1631719767.769723] [comp0802:138231:0]            sys.c:618  UCX  ERROR shmget(size=2097152 flags=0xfb0) for mm_recv_desc failed: Operation not permitted, please check shared memory limits by 'ipcs -l'
[1631719767.780307] [comp0802:138230:0]            sys.c:618  UCX  ERROR shmget(size=2097152 flags=0xfb0) for mm_recv_desc failed: Operation not permitted, please check shared memory limits by 'ipcs -l'
[1631719767.781006] [comp0802:138232:0]            sys.c:618  UCX  ERROR shmget(size=2097152 flags=0xfb0) for mm_recv_desc failed: Operation not permitted, please check shared memory limits by 'ipcs -l'
[1631719767.800814] [comp0802:138229:0]            sys.c:618  UCX  ERROR shmget(size=2097152 flags=0xb80) for ucp_am_bufs failed: Operation not permitted, please check shared memory limits by 'ipcs -l'
[1631719767.801736] [comp0802:138230:0]            sys.c:618  UCX  ERROR shmget(size=2097152 flags=0xb80) for ucp_am_bufs failed: Operation not permitted, please check shared memory limits by 'ipcs -l'


           ************************************************************
           *        Program running with 4 parallel MPI-processes     *
           *              working on a common directory               *
           ************************************************************
[1631719767.805347] [comp0802:138231:0]            sys.c:618  UCX  ERROR shmget(size=2097152 flags=0xb80) for ucp_am_bufs failed: Operation not permitted, please check shared memory limits by 'ipcs -l'
[1631719767.805851] [comp0802:138232:0]            sys.c:618  UCX  ERROR shmget(size=2097152 flags=0xb80) for ucp_am_bufs failed: Operation not permitted, please check shared memory limits by 'ipcs -l'
-------------------------------------------------------------------------------
                                 ORCA SCF
-------------------------------------------------------------------------------

------------
SCF SETTINGS
------------
Hamiltonian:
 Density Functional     Method          .... DFT(GTOs)
 Exchange Functional    Exchange        .... PBE
   PBE kappa parameter   XKappa         ....  0.804000
   PBE mue parameter    XMuePBE         ....  0.219520
 Correlation Functional Correlation     .... PBE
   PBE beta parameter  CBetaPBE         ....  0.066725
 LDA part of GGA corr.  LDAOpt          .... PW91-LDA
 Gradients option       PostSCFGGA      .... off
 Hybrid DFT is turned on
   Fraction HF Exchange ScalHFX         ....  0.250000
   Scaling of DF-GGA-X  ScalDFX         ....  0.750000
   Scaling of DF-GGA-C  ScalDFC         ....  1.000000
   Scaling of DF-LDA-C  ScalLDAC        ....  1.000000
   Perturbative correction              ....  0.000000
   Density functional embedding theory  .... OFF
   NL short-range parameter             ....  6.900000
 RI-approximation to the Coulomb term is turned on
   Number of auxiliary basis functions  .... 475
   RIJ-COSX (HFX calculated with COS-X)).... on


General Settings:
 Integral files         IntName         .... manual_reactants_345_opt
 Hartree-Fock type      HFTyp           .... RHF
 Total Charge           Charge          ....   -1
 Multiplicity           Mult            ....    1
 Number of Electrons    NEL             ....   94
 Basis Dimension        Dim             ....  175
 Nuclear Repulsion      ENuc            ....    546.8290788627 Eh

Convergence Acceleration:
 DIIS                   CNVDIIS         .... on
   Start iteration      DIISMaxIt       ....    12
   Startup error        DIISStart       ....  0.200000
   # of expansion vecs  DIISMaxEq       ....     5
   Bias factor          DIISBfac        ....   1.050
   Max. coefficient     DIISMaxC        ....  10.000
 Newton-Raphson         CNVNR           .... off
 SOSCF                  CNVSOSCF        .... on
   Start iteration      SOSCFMaxIt      ....   150
   Startup grad/error   SOSCFStart      ....  0.003300
 Level Shifting         CNVShift        .... on
   Level shift para.    LevelShift      ....    0.2500
   Turn off err/grad.   ShiftErr        ....    0.0010
 Zerner damping         CNVZerner       .... off
 Static damping         CNVDamp         .... on
   Fraction old density DampFac         ....    0.7000
   Max. Damping (<1)    DampMax         ....    0.9800
   Min. Damping (>=0)   DampMin         ....    0.0000
   Turn off err/grad.   DampErr         ....    0.1000
 Fernandez-Rico         CNVRico         .... off

SCF Procedure:
 Maximum # iterations   MaxIter         ....   250
 SCF integral mode      SCFMode         .... Direct
   Integral package                     .... LIBINT
 Reset frequency        DirectResetFreq ....    20
 Integral Threshold     Thresh          ....  2.500e-11 Eh
 Primitive CutOff       TCut            ....  2.500e-12 Eh

Convergence Tolerance:
 Convergence Check Mode ConvCheckMode   .... Total+1el-Energy
 Convergence forced     ConvForced      .... 0
 Energy Change          TolE            ....  1.000e-08 Eh
 1-El. energy change                    ....  1.000e-05 Eh
 Orbital Gradient       TolG            ....  1.000e-05
 Orbital Rotation angle TolX            ....  1.000e-05
 DIIS Error             TolErr          ....  5.000e-07


Diagonalization of the overlap matrix:
Smallest eigenvalue                        ... 1.551e-03
Time for diagonalization                   ...    0.163 sec
Threshold for overlap eigenvalues          ... 1.000e-08
Number of eigenvalues below threshold      ... 0
Time for construction of square roots      ...    0.003 sec
Total time needed                          ...    0.166 sec

-------------------
DFT GRID GENERATION
-------------------

General Integration Accuracy     IntAcc      ...  4.340
Radial Grid Type                 RadialGrid  ... Gauss-Chebyshev
Angular Grid (max. acc.)         AngularGrid ... Lebedev-110
Angular grid pruning method      GridPruning ... 3 (G Style)
Weight generation scheme         WeightScheme... Becke
Basis function cutoff            BFCut       ...    1.0000e-11
Integration weight cutoff        WCut        ...    1.0000e-14
Grids for H and He will be reduced by one unit

# of grid points (after initial pruning)     ...  21748 (   0.0 sec)
# of grid points (after weights+screening)   ...  20098 (   0.0 sec)
nearest neighbour list constructed           ...    0.0 sec
Grid point re-assignment to atoms done       ...    0.0 sec
Grid point division into batches done        ...    0.0 sec
Reduced shell lists constructed in    0.1 sec

Total number of grid points                  ...    20098
Total number of batches                      ...      324
Average number of points per batch           ...       62
Average number of grid points per atom       ...     1117
Average number of shells per batch           ...    63.87 (76.95%)
Average number of basis functions per batch  ...   132.21 (75.55%)
Average number of large shells per batch     ...    53.48 (83.73%)
Average number of large basis fcns per batch ...   107.89 (81.61%)
Maximum spatial batch extension              ...  14.24, 13.24, 15.91 au
Average spatial batch extension              ...   0.53,  0.55,  0.55 au

Time for grid setup =    0.134 sec

------------------------------
INITIAL GUESS: MODEL POTENTIAL
------------------------------
Loading Hartree-Fock densities                     ... done
Calculating cut-offs                               ... done
Setting up the integral package                    ... done
Initializing the effective Hamiltonian             ... done
Starting the Coulomb interaction                   ... done (   0.0 sec)
Reading the grid                                   ... done
Mapping shells                                     ... done
Starting the XC term evaluation                    ... done (   0.0 sec)
  promolecular density results
     # of electrons  =     93.010812890
     EX              =   -145.426758208
     EC              =     -3.701571644
     EX+EC           =   -149.128329851
Transforming the Hamiltonian                       ... done (   0.0 sec)
Diagonalizing the Hamiltonian                      ... done (   0.0 sec)
Back transforming the eigenvectors                 ... done (   0.0 sec)
Now organizing SCF variables                       ... done
                      ------------------
                      INITIAL GUESS DONE (   0.3 sec)
                      ------------------
--------------------
COSX GRID GENERATION
--------------------

General Integration Accuracy     IntAcc      ...  3.340
Radial Grid Type                 RadialGrid  ... Gauss-Chebyshev
Angular Grid (max. acc.)         AngularGrid ... Lebedev-50
Angular grid pruning method      GridPruning ... 3 (G Style)
Weight generation scheme         WeightScheme... Becke
Basis function cutoff            BFCut       ...    1.0000e-11
Integration weight cutoff        WCut        ...    1.0000e-14
Grids for H and He will be reduced by one unit

# of grid points (after initial pruning)     ...   8168 (   0.0 sec)
# of grid points (after weights+screening)   ...   7546 (   0.0 sec)
nearest neighbour list constructed           ...    0.0 sec
Grid point re-assignment to atoms done       ...    0.0 sec
Grid point division into batches done        ...    0.0 sec
Reduced shell lists constructed in    0.0 sec

Total number of grid points                  ...     7546
Total number of batches                      ...      128
Average number of points per batch           ...       58
Average number of grid points per atom       ...      419
Average number of shells per batch           ...    65.30 (78.68%)
Average number of basis functions per batch  ...   135.97 (77.70%)
Average number of large shells per batch     ...    56.24 (86.13%)
Average number of large basis fcns per batch ...   114.55 (84.24%)
Maximum spatial batch extension              ...  15.20, 12.72, 12.14 au
Average spatial batch extension              ...   0.80,  0.79,  0.76 au

Overlap Fitting                  UseSFitting ... on
Constructing numerical overlap ... done (      0.0 sec)
Inverting numerical overlap    ... done (      0.0 sec)
Obtaining analytic overlap     ... done (      0.0 sec)
Final contraction and storage  ... done (      0.0 sec)


General Integration Accuracy     IntAcc      ...  3.670
Radial Grid Type                 RadialGrid  ... Gauss-Chebyshev
Angular Grid (max. acc.)         AngularGrid ... Lebedev-50
Angular grid pruning method      GridPruning ... 3 (G Style)
Weight generation scheme         WeightScheme... Becke
Basis function cutoff            BFCut       ...    1.0000e-11
Integration weight cutoff        WCut        ...    1.0000e-14
Grids for H and He will be reduced by one unit

# of grid points (after initial pruning)     ...  10378 (   0.0 sec)
# of grid points (after weights+screening)   ...   9553 (   0.0 sec)
nearest neighbour list constructed           ...    0.0 sec
Grid point re-assignment to atoms done       ...    0.0 sec
Grid point division into batches done        ...    0.0 sec
Reduced shell lists constructed in    0.0 sec

Total number of grid points                  ...     9553
Total number of batches                      ...      161
Average number of points per batch           ...       59
Average number of grid points per atom       ...      531
Average number of shells per batch           ...    65.17 (78.51%)
Average number of basis functions per batch  ...   135.17 (77.24%)
Average number of large shells per batch     ...    54.88 (84.22%)
Average number of large basis fcns per batch ...   110.31 (81.61%)
Maximum spatial batch extension              ...  15.68, 13.29, 13.33 au
Average spatial batch extension              ...   0.70,  0.68,  0.73 au

Overlap Fitting                  UseSFitting ... on
Constructing numerical overlap ... done (      0.0 sec)
Inverting numerical overlap    ... done (      0.0 sec)
Obtaining analytic overlap     ... done (      0.0 sec)
Final contraction and storage  ... done (      0.0 sec)


General Integration Accuracy     IntAcc      ...  4.010
Radial Grid Type                 RadialGrid  ... Gauss-Chebyshev
Angular Grid (max. acc.)         AngularGrid ... Lebedev-110
Angular grid pruning method      GridPruning ... 3 (G Style)
Weight generation scheme         WeightScheme... Becke
Basis function cutoff            BFCut       ...    1.0000e-11
Integration weight cutoff        WCut        ...    1.0000e-14
Grids for H and He will be reduced by one unit

# of grid points (after initial pruning)     ...  18926 (   0.0 sec)
# of grid points (after weights+screening)   ...  17528 (   0.0 sec)
nearest neighbour list constructed           ...    0.0 sec
Grid point re-assignment to atoms done       ...    0.0 sec
Grid point division into batches done        ...    0.0 sec
Reduced shell lists constructed in    0.0 sec

Total number of grid points                  ...    17528
Total number of batches                      ...      282
Average number of points per batch           ...       62
Average number of grid points per atom       ...      974
Average number of shells per batch           ...    64.11 (77.24%)
Average number of basis functions per batch  ...   132.89 (75.94%)
Average number of large shells per batch     ...    53.99 (84.21%)
Average number of large basis fcns per batch ...   109.38 (82.31%)
Maximum spatial batch extension              ...  13.52, 12.58, 14.92 au
Average spatial batch extension              ...   0.55,  0.61,  0.58 au

Overlap Fitting                  UseSFitting ... on
Constructing numerical overlap ... done (      0.0 sec)
Inverting numerical overlap    ... done (      0.0 sec)
Obtaining analytic overlap     ... done (      0.0 sec)
Final contraction and storage  ... done (      0.0 sec)

Time for X-Grid setup             =    0.220 sec

--------------------
CPCM SOLVATION MODEL
--------------------
CPCM parameters:
  Epsilon                                         ...      38.3000
  Refrac                                          ...       1.4300
  Rsolv                                           ...       1.3000
  Surface type                                    ...    GEPOL SES
  Epsilon function type                           ...         CPCM
Radii:
 Radius for C  used is    3.7795 Bohr (=   2.0000 Ang.)
 Radius for Br used is    4.0818 Bohr (=   2.1600 Ang.)
 Radius for H  used is    2.4566 Bohr (=   1.3000 Ang.)
 Radius for Cl used is    3.8739 Bohr (=   2.0500 Ang.)
Calculating surface                               ...        done! (  0.1s)
GEPOL surface points                              ...          797
GEPOL Volume                                      ...    1262.0567
GEPOL Surface-area                                ...     708.0119
Calculating surface distance matrix               ...        done! (  0.0s)
Performing Cholesky decomposition & store         ...        done! (  0.0s)
Overall time for CPCM initialization              ...                 0.1s
--------------
SCF ITERATIONS
--------------
ITER       Energy         Delta-E        Max-DP      RMS-DP      [F,P]     Damp
               ***  Starting incremental Fock matrix formation  ***
  0  -3230.1741312700   0.000000000000 0.11368605  0.00230348  0.1591369 0.7000
  1  -3230.2712297537  -0.097098483671 0.08070914  0.00174034  0.0959430 0.7000
                               ***Turning on DIIS***
  2  -3230.3137314063  -0.042501652552 0.14847801  0.00330642  0.0519629 0.0000
  3  -3230.3737638546  -0.060032448315 0.03973252  0.00105673  0.0454129 0.0000
  4  -3230.3897714697  -0.016007615165 0.01974393  0.00035634  0.0113343 0.0000
                      *** Initiating the SOSCF procedure ***
                           *** Shutting down DIIS ***
                      *** Re-Reading the Fockian *** 
                      *** Removing any level shift *** 
ITER      Energy       Delta-E        Grad      Rot      Max-DP    RMS-DP
  5  -3230.39054116  -0.0007696922  0.000902  0.000902  0.003611  0.000103
               *** Restarting incremental Fock matrix formation ***
  6  -3230.39055378  -0.0000126164  0.000427  0.000950  0.002413  0.000062
  7  -3230.39055612  -0.0000023405  0.000257  0.000194  0.000721  0.000016
  8  -3230.39055818  -0.0000020610  0.000030  0.000025  0.000143  0.000004
  9  -3230.39055817   0.0000000087  0.000021  0.000010  0.000045  0.000001
 10  -3230.39055820  -0.0000000240  0.000003  0.000004  0.000022  0.000001
 11  -3230.39055825  -0.0000000580  0.000004  0.000002  0.000012  0.000000
                  ***Gradient check signals convergence***
              ***Rediagonalizing the Fockian in SOSCF/NRSCF***

               *****************************************************
               *                     SUCCESS                       *
               *           SCF CONVERGED AFTER  12 CYCLES          *
               *****************************************************

Setting up the final grid:

General Integration Accuracy     IntAcc      ...  4.670
Radial Grid Type                 RadialGrid  ... Gauss-Chebyshev
Angular Grid (max. acc.)         AngularGrid ... Lebedev-302
Angular grid pruning method      GridPruning ... 3 (G Style)
Weight generation scheme         WeightScheme... Becke
Basis function cutoff            BFCut       ...    1.0000e-11
Integration weight cutoff        WCut        ...    1.0000e-14
Grids for H and He will be reduced by one unit

# of grid points (after initial pruning)     ...  84748 (   0.0 sec)
# of grid points (after weights+screening)   ...  77133 (   0.1 sec)
nearest neighbour list constructed           ...    0.0 sec
Grid point re-assignment to atoms done       ...    0.0 sec
Grid point division into batches done        ...    0.2 sec
Reduced shell lists constructed in    0.5 sec

Total number of grid points                  ...    77133
Total number of batches                      ...     1212
Average number of points per batch           ...       63
Average number of grid points per atom       ...     4285
Average number of shells per batch           ...    62.14 (74.87%)
Average number of basis functions per batch  ...   128.34 (73.34%)
Average number of large shells per batch     ...    50.55 (81.35%)
Average number of large basis fcns per batch ...   101.14 (78.80%)
Maximum spatial batch extension              ...  15.48, 16.25, 15.73 au
Average spatial batch extension              ...   0.37,  0.37,  0.37 au

Final grid set up in    0.6 sec
Final integration                            ... done (   0.2 sec)
Change in XC energy                          ...     0.001251239
Integrated number of electrons               ...    94.000279965
Previous integrated no of electrons          ...    94.010761191
Old exchange energy                            =    -36.804879438 Eh
New exchange energy                            =    -36.803017927 Eh
Exchange energy change after final integration =      0.001861511 Eh
Total energy after final integration           =  -3230.387445454 Eh
Final COS-X integration done in                =     1.259 sec

----------------
TOTAL SCF ENERGY
----------------

Total Energy       :        -3230.38744545 Eh          -87903.31131 eV

Components:
Nuclear Repulsion  :          546.82907886 Eh           14879.97572 eV
Electronic Energy  :        -3777.21652432 Eh         -102783.28703 eV
One Electron Energy:        -5584.24023541 Eh         -151954.90204 eV
Two Electron Energy:         1807.02371109 Eh           49171.61502 eV
CPCM Dielectric    :           -0.11614910 Eh              -3.16058 eV

Virial components:
Potential Energy   :        -6455.01352657 Eh         -175649.84792 eV
Kinetic Energy     :         3224.62608111 Eh           87746.53661 eV
Virial Ratio       :            2.00178668


DFT components:
N(Alpha)           :       47.000139982594 electrons
N(Beta)            :       47.000139982594 electrons
N(Total)           :       94.000279965189 electrons
E(X)               :     -109.857890572509 Eh       
E(C)               :       -3.752998094025 Eh       
E(XC)              :     -113.610888666534 Eh       
DFET-embed. en.    :        0.000000000000 Eh       
CPCM Solvation Model Properties:
Surface-charge          :            0.97656753
Charge-correction       :           -0.00329488 Eh              -0.08966 eV
Free-energy (cav+disp)  :            0.00424223 Eh               0.11544 eV
Corrected G(solv)       :        -3230.38649810 Eh          -87903.28553 eV

---------------
SCF CONVERGENCE
---------------

  Last Energy change         ...    4.9876e-08  Tolerance :   1.0000e-08
  Last MAX-Density change    ...    6.6613e-15  Tolerance :   1.0000e-07
  Last RMS-Density change    ...    8.3792e-17  Tolerance :   5.0000e-09
  Last Orbital Gradient      ...    4.3717e-07  Tolerance :   1.0000e-05
  Last Orbital Rotation      ...    8.4076e-07  Tolerance :   1.0000e-05

             **** THE GBW FILE WAS UPDATED (manual_reactants_345_opt.gbw) ****
             **** DENSITY FILE WAS UPDATED (manual_reactants_345_opt.scfp) ****
             **** ENERGY FILE WAS UPDATED (manual_reactants_345_opt.en.tmp) ****
             **** THE GBW FILE WAS UPDATED (manual_reactants_345_opt.gbw) ****
             **** DENSITY FILE WAS UPDATED (manual_reactants_345_opt.scfp) ****
----------------
ORBITAL ENERGIES
----------------

  NO   OCC          E(Eh)            E(eV) 
   0   2.0000    -483.177275    -13147.9221 
   1   2.0000    -101.511618     -2762.2715 
   2   2.0000     -62.613324     -1703.7952 
   3   2.0000     -56.402495     -1534.7899 
   4   2.0000     -56.400235     -1534.7284 
   5   2.0000     -56.400163     -1534.7265 
   6   2.0000     -10.277883      -279.6754 
   7   2.0000     -10.247219      -278.8410 
   8   2.0000     -10.217485      -278.0319 
   9   2.0000     -10.217209      -278.0244 
  10   2.0000     -10.215525      -277.9786 
  11   2.0000      -9.358785      -254.6655 
  12   2.0000      -8.758557      -238.3325 
  13   2.0000      -7.094537      -193.0522 
  14   2.0000      -7.094520      -193.0517 
  15   2.0000      -7.094499      -193.0511 
  16   2.0000      -6.572741      -178.8534 
  17   2.0000      -6.560859      -178.5301 
  18   2.0000      -6.560602      -178.5231 
  19   2.0000      -2.658261       -72.3350 
  20   2.0000      -2.655070       -72.2481 
  21   2.0000      -2.654916       -72.2439 
  22   2.0000      -2.645228       -71.9803 
  23   2.0000      -2.645209       -71.9798 
  24   2.0000      -0.857066       -23.3219 
  25   2.0000      -0.791548       -21.5391 
  26   2.0000      -0.694213       -18.8905 
  27   2.0000      -0.692700       -18.8493 
  28   2.0000      -0.668030       -18.1780 
  29   2.0000      -0.662284       -18.0217 
  30   2.0000      -0.543265       -14.7830 
  31   2.0000      -0.473518       -12.8851 
  32   2.0000      -0.468621       -12.7518 
  33   2.0000      -0.451142       -12.2762 
  34   2.0000      -0.418564       -11.3897 
  35   2.0000      -0.405276       -11.0281 
  36   2.0000      -0.378608       -10.3024 
  37   2.0000      -0.367660       -10.0045 
  38   2.0000      -0.365831        -9.9548 
  39   2.0000      -0.348237        -9.4760 
  40   2.0000      -0.334859        -9.1120 
  41   2.0000      -0.330058        -8.9813 
  42   2.0000      -0.285680        -7.7737 
  43   2.0000      -0.284679        -7.7465 
  44   2.0000      -0.207298        -5.6409 
  45   2.0000      -0.207139        -5.6365 
  46   2.0000      -0.205258        -5.5854 
  47   0.0000       0.019094         0.5196 
  48   0.0000       0.069990         1.9045 
  49   0.0000       0.114318         3.1107 
  50   0.0000       0.116966         3.1828 
  51   0.0000       0.130278         3.5451 
  52   0.0000       0.136886         3.7249 
  53   0.0000       0.142573         3.8796 
  54   0.0000       0.151830         4.1315 
  55   0.0000       0.167376         4.5545 
  56   0.0000       0.196251         5.3403 
  57   0.0000       0.202555         5.5118 
  58   0.0000       0.205266         5.5856 
  59   0.0000       0.207669         5.6510 
  60   0.0000       0.230972         6.2851 
  61   0.0000       0.242790         6.6067 
  62   0.0000       0.245888         6.6910 
  63   0.0000       0.362560         9.8658 
  64   0.0000       0.380223        10.3464 
  65   0.0000       0.401633        10.9290 
  66   0.0000       0.427669        11.6375 
  67   0.0000       0.434202        11.8152 
  68   0.0000       0.442929        12.0527 
  69   0.0000       0.494006        13.4426 
  70   0.0000       0.495244        13.4763 
  71   0.0000       0.528024        14.3683 
  72   0.0000       0.551874        15.0173 
  73   0.0000       0.557217        15.1626 
  74   0.0000       0.569968        15.5096 
  75   0.0000       0.594493        16.1770 
  76   0.0000       0.598629        16.2895 
  77   0.0000       0.623545        16.9675 
  78   0.0000       0.633542        17.2396 
  79   0.0000       0.648443        17.6450 
  80   0.0000       0.650588        17.7034 
  81   0.0000       0.660207        17.9652 
  82   0.0000       0.664594        18.0845 
  83   0.0000       0.679307        18.4849 
  84   0.0000       0.688245        18.7281 
  85   0.0000       0.706419        19.2226 
  86   0.0000       0.718180        19.5427 
  87   0.0000       0.729900        19.8616 
  88   0.0000       0.730526        19.8786 
  89   0.0000       0.741685        20.1823 
  90   0.0000       0.749151        20.3854 
  91   0.0000       0.752941        20.4886 
  92   0.0000       0.756944        20.5975 
  93   0.0000       0.763741        20.7824 
  94   0.0000       0.772084        21.0095 
  95   0.0000       0.793786        21.6000 
  96   0.0000       0.797110        21.6905 
  97   0.0000       0.875994        23.8370 
  98   0.0000       0.929854        25.3026 
  99   0.0000       0.929930        25.3047 
 100   0.0000       0.932343        25.3704 
 101   0.0000       0.934226        25.4216 
 102   0.0000       0.936015        25.4703 
 103   0.0000       0.940263        25.5859 
 104   0.0000       0.994318        27.0568 
 105   0.0000       1.003665        27.3111 
 106   0.0000       1.009979        27.4829 
 107   0.0000       1.043230        28.3877 
 108   0.0000       1.082474        29.4556 
 109   0.0000       1.130121        30.7522 
 110   0.0000       1.146551        31.1992 
 111   0.0000       1.163897        31.6712 
 112   0.0000       1.186103        32.2755 
 113   0.0000       1.204600        32.7788 
 114   0.0000       1.276881        34.7457 
 115   0.0000       1.294372        35.2216 
 116   0.0000       1.379603        37.5409 
 117   0.0000       1.554253        42.2934 
 118   0.0000       1.562130        42.5077 
 119   0.0000       1.565164        42.5903 
 120   0.0000       1.571877        42.7730 
 121   0.0000       1.589686        43.2575 
 122   0.0000       1.615070        43.9483 
 123   0.0000       1.638938        44.5978 
 124   0.0000       1.705225        46.4015 
 125   0.0000       1.751941        47.6727 
 126   0.0000       1.757536        47.8250 
 127   0.0000       1.776487        48.3407 
 128   0.0000       1.792789        48.7843 
 129   0.0000       1.841424        50.1077 
 130   0.0000       1.851020        50.3688 
 131   0.0000       1.858078        50.5609 
 132   0.0000       1.861229        50.6466 
 133   0.0000       1.871307        50.9208 
 134   0.0000       1.874158        50.9984 
 135   0.0000       1.903587        51.7992 
 136   0.0000       1.909899        51.9710 
 137   0.0000       1.966188        53.5027 
 138   0.0000       1.973028        53.6888 
 139   0.0000       1.986104        54.0446 
 140   0.0000       1.997381        54.3515 
 141   0.0000       2.018871        54.9363 
 142   0.0000       2.085752        56.7562 
 143   0.0000       2.133366        58.0518 
 144   0.0000       2.206330        60.0373 
 145   0.0000       2.220800        60.4310 
 146   0.0000       2.239864        60.9498 
 147   0.0000       2.316730        63.0414 
 148   0.0000       2.342782        63.7503 
 149   0.0000       2.403510        65.4028 
 150   0.0000       2.428782        66.0905 
 151   0.0000       2.430092        66.1262 
 152   0.0000       2.451439        66.7070 
 153   0.0000       2.468128        67.1612 
 154   0.0000       2.619186        71.2717 
 155   0.0000       2.630741        71.5861 
 156   0.0000       2.649305        72.0912 
 157   0.0000       2.653107        72.1947 
 158   0.0000       2.673620        72.7529 
 159   0.0000       2.749878        74.8280 
 160   0.0000       2.877574        78.3028 
 161   0.0000       2.893741        78.7427 
 162   0.0000       2.898687        78.8773 
 163   0.0000       2.915817        79.3434 
 164   0.0000       2.926891        79.6447 
 165   0.0000       2.980709        81.1092 
 166   0.0000       3.006344        81.8068 
 167   0.0000       3.023525        82.2743 
 168   0.0000       3.111560        84.6699 
 169   0.0000       3.131241        85.2054 
 170   0.0000       3.494807        95.0985 
 171   0.0000       3.496204        95.1366 
 172   0.0000       3.596734        97.8721 
 173   0.0000       3.597675        97.8977 
 174   0.0000       3.857265       104.9615 

                    ********************************
                    * MULLIKEN POPULATION ANALYSIS *
                    ********************************

-----------------------
MULLIKEN ATOMIC CHARGES
-----------------------
   0 C :    0.011506
   1 C :   -0.389441
   2 C :   -0.007884
   3 C :   -0.007119
   4 C :   -0.022250
   5 Br:   -0.193074
   6 H :    0.033494
   7 H :    0.030365
   8 H :    0.030550
   9 H :    0.041396
  10 H :    0.048502
  11 H :    0.044326
  12 H :    0.042338
  13 H :    0.045033
  14 H :    0.046260
  15 H :    0.100977
  16 H :    0.101130
  17 Cl:   -0.956109
Sum of atomic charges:   -1.0000000

--------------------------------
MULLIKEN REDUCED ORBITAL CHARGES
--------------------------------
  0 C s       :     3.022315  s :     3.022315
      pz      :     0.937504  p :     2.939203
      px      :     0.983047
      py      :     1.018653
      dz2     :     0.007268  d :     0.026976
      dxz     :     0.007859
      dyz     :     0.001674
      dx2y2   :     0.001873
      dxy     :     0.008302
  1 C s       :     3.267747  s :     3.267747
      pz      :     1.048390  p :     3.067975
      px      :     1.022589
      py      :     0.996996
      dz2     :     0.012181  d :     0.053719
      dxz     :     0.012259
      dyz     :     0.007130
      dx2y2   :     0.008656
      dxy     :     0.013494
  2 C s       :     3.028808  s :     3.028808
      pz      :     0.959377  p :     2.952283
      px      :     0.979501
      py      :     1.013406
      dz2     :     0.007775  d :     0.026793
      dxz     :     0.007126
      dyz     :     0.001293
      dx2y2   :     0.001967
      dxy     :     0.008632
  3 C s       :     3.027540  s :     3.027540
      pz      :     1.013194  p :     2.952811
      px      :     0.986916
      py      :     0.952701
      dz2     :     0.005213  d :     0.026768
      dxz     :     0.008551
      dyz     :     0.001547
      dx2y2   :     0.003928
      dxy     :     0.007528
  4 C s       :     3.129140  s :     3.129140
      pz      :     0.881484  p :     2.857898
      px      :     0.951549
      py      :     1.024865
      dz2     :     0.006590  d :     0.035212
      dxz     :     0.010505
      dyz     :     0.003723
      dx2y2   :     0.005540
      dxy     :     0.008854
  5 Brs       :     7.969821  s :     7.969821
      pz      :     5.507199  p :    17.180597
      px      :     5.729638
      py      :     5.943760
      dz2     :     2.011769  d :    10.042656
      dxz     :     2.017062
      dyz     :     2.006049
      dx2y2   :     2.004023
      dxy     :     2.003752
  6 H s       :     0.942691  s :     0.942691
      pz      :     0.010660  p :     0.023815
      px      :     0.007884
      py      :     0.005271
  7 H s       :     0.945729  s :     0.945729
      pz      :     0.004271  p :     0.023906
      px      :     0.008341
      py      :     0.011294
  8 H s       :     0.945766  s :     0.945766
      pz      :     0.004254  p :     0.023684
      px      :     0.008572
      py      :     0.010858
  9 H s       :     0.934351  s :     0.934351
      pz      :     0.011520  p :     0.024254
      px      :     0.007515
      py      :     0.005219
 10 H s       :     0.927662  s :     0.927662
      pz      :     0.004399  p :     0.023836
      px      :     0.008370
      py      :     0.011067
 11 H s       :     0.932045  s :     0.932045
      pz      :     0.004336  p :     0.023629
      px      :     0.007803
      py      :     0.011490
 12 H s       :     0.933505  s :     0.933505
      pz      :     0.011865  p :     0.024157
      px      :     0.007842
      py      :     0.004450
 13 H s       :     0.931363  s :     0.931363
      pz      :     0.010878  p :     0.023603
      px      :     0.008499
      py      :     0.004226
 14 H s       :     0.929911  s :     0.929911
      pz      :     0.005177  p :     0.023828
      px      :     0.007810
      py      :     0.010841
 15 H s       :     0.876254  s :     0.876254
      pz      :     0.010251  p :     0.022769
      px      :     0.008535
      py      :     0.003983
 16 H s       :     0.876165  s :     0.876165
      pz      :     0.003623  p :     0.022704
      px      :     0.007662
      py      :     0.011420
 17 Cls       :     5.998435  s :     5.998435
      pz      :     3.977888  p :    11.957630
      px      :     3.985835
      py      :     3.993907
      dz2     :     0.000010  d :     0.000045
      dxz     :     0.000021
      dyz     :     0.000006
      dx2y2   :     0.000005
      dxy     :     0.000003


                     *******************************
                     * LOEWDIN POPULATION ANALYSIS *
                     *******************************

----------------------
LOEWDIN ATOMIC CHARGES
----------------------
   0 C :   -0.054269
   1 C :   -0.091902
   2 C :   -0.061589
   3 C :   -0.060813
   4 C :   -0.065159
   5 Br:   -0.023762
   6 H :    0.026228
   7 H :    0.025097
   8 H :    0.023474
   9 H :    0.021110
  10 H :    0.031894
  11 H :    0.029890
  12 H :    0.022096
  13 H :    0.029827
  14 H :    0.031921
  15 H :    0.038930
  16 H :    0.039164
  17 Cl:   -0.962138

-------------------------------
LOEWDIN REDUCED ORBITAL CHARGES
-------------------------------
  0 C s       :     2.848006  s :     2.848006
      pz      :     1.018130  p :     3.134927
      px      :     1.047076
      py      :     1.069721
      dz2     :     0.019387  d :     0.071335
      dxz     :     0.021972
      dyz     :     0.003674
      dx2y2   :     0.004880
      dxy     :     0.021422
  1 C s       :     2.851477  s :     2.851477
      pz      :     1.050357  p :     3.117820
      px      :     1.039143
      py      :     1.028320
      dz2     :     0.028297  d :     0.122606
      dxz     :     0.029831
      dyz     :     0.012826
      dx2y2   :     0.017989
      dxy     :     0.033663
  2 C s       :     2.846431  s :     2.846431
      pz      :     1.032512  p :     3.144269
      px      :     1.046063
      py      :     1.065694
      dz2     :     0.020204  d :     0.070889
      dxz     :     0.020386
      dyz     :     0.002839
      dx2y2   :     0.005297
      dxy     :     0.022163
  3 C s       :     2.846535  s :     2.846535
      pz      :     1.066308  p :     3.143472
      px      :     1.048210
      py      :     1.028954
      dz2     :     0.014241  d :     0.070806
      dxz     :     0.022133
      dyz     :     0.003522
      dx2y2   :     0.009809
      dxy     :     0.021102
  4 C s       :     2.917923  s :     2.917923
      pz      :     0.955862  p :     3.063095
      px      :     1.027273
      py      :     1.079960
      dz2     :     0.016131  d :     0.084141
      dxz     :     0.024429
      dyz     :     0.007721
      dx2y2   :     0.012187
      dxy     :     0.023673
  5 Brs       :     7.824483  s :     7.824483
      pz      :     5.504013  p :    17.145036
      px      :     5.718059
      py      :     5.922964
      dz2     :     2.014068  d :    10.054244
      dxz     :     2.022726
      dyz     :     2.007947
      dx2y2   :     2.004780
      dxy     :     2.004722
  6 H s       :     0.907444  s :     0.907444
      pz      :     0.031925  p :     0.066327
      px      :     0.021433
      py      :     0.012969
  7 H s       :     0.907787  s :     0.907787
      pz      :     0.012451  p :     0.067117
      px      :     0.023060
      py      :     0.031606
  8 H s       :     0.909797  s :     0.909797
      pz      :     0.012681  p :     0.066729
      px      :     0.023904
      py      :     0.030144
  9 H s       :     0.910664  s :     0.910664
      pz      :     0.034254  p :     0.068226
      px      :     0.021061
      py      :     0.012912
 10 H s       :     0.901550  s :     0.901550
      pz      :     0.012938  p :     0.066556
      px      :     0.023315
      py      :     0.030303
 11 H s       :     0.903824  s :     0.903824
      pz      :     0.012639  p :     0.066286
      px      :     0.022152
      py      :     0.031495
 12 H s       :     0.909961  s :     0.909961
      pz      :     0.032815  p :     0.067942
      px      :     0.021699
      py      :     0.013428
 13 H s       :     0.903840  s :     0.903840
      pz      :     0.029870  p :     0.066333
      px      :     0.023691
      py      :     0.012773
 14 H s       :     0.901678  s :     0.901678
      pz      :     0.012768  p :     0.066401
      px      :     0.021643
      py      :     0.031990
 15 H s       :     0.889738  s :     0.889738
      pz      :     0.032998  p :     0.071332
      px      :     0.025159
      py      :     0.013175
 16 H s       :     0.889556  s :     0.889556
      pz      :     0.012047  p :     0.071280
      px      :     0.023793
      py      :     0.035440
 17 Cls       :     5.998063  s :     5.998063
      pz      :     3.980902  p :    11.964033
      px      :     3.987527
      py      :     3.995604
      dz2     :     0.000009  d :     0.000042
      dxz     :     0.000019
      dyz     :     0.000006
      dx2y2   :     0.000005
      dxy     :     0.000003


                      *****************************
                      * MAYER POPULATION ANALYSIS *
                      *****************************

  NA   - Mulliken gross atomic population
  ZA   - Total nuclear charge
  QA   - Mulliken gross atomic charge
  VA   - Mayer's total valence
  BVA  - Mayer's bonded valence
  FA   - Mayer's free valence

  ATOM       NA         ZA         QA         VA         BVA        FA
  0 C      5.9885     6.0000     0.0115     3.8731     3.8731    -0.0000
  1 C      6.3894     6.0000    -0.3894     4.1092     4.1092     0.0000
  2 C      6.0079     6.0000    -0.0079     3.8620     3.8620    -0.0000
  3 C      6.0071     6.0000    -0.0071     3.8642     3.8642     0.0000
  4 C      6.0223     6.0000    -0.0223     3.8139     3.8139     0.0000
  5 Br    35.1931    35.0000    -0.1931     1.0519     1.0519    -0.0000
  6 H      0.9665     1.0000     0.0335     1.0065     1.0065    -0.0000
  7 H      0.9696     1.0000     0.0304     1.0281     1.0281    -0.0000
  8 H      0.9694     1.0000     0.0306     1.0171     1.0171    -0.0000
  9 H      0.9586     1.0000     0.0414     1.0060     1.0060    -0.0000
 10 H      0.9515     1.0000     0.0485     0.9932     0.9932    -0.0000
 11 H      0.9557     1.0000     0.0443     0.9920     0.9920    -0.0000
 12 H      0.9577     1.0000     0.0423     1.0042     1.0042    -0.0000
 13 H      0.9550     1.0000     0.0450     0.9915     0.9915    -0.0000
 14 H      0.9537     1.0000     0.0463     0.9943     0.9943    -0.0000
 15 H      0.8990     1.0000     0.1010     0.9769     0.9769    -0.0000
 16 H      0.8989     1.0000     0.1011     0.9771     0.9771     0.0000
 17 Cl    17.9561    17.0000    -0.9561     0.0873     0.0873    -0.0000

  Mayer bond orders larger than 0.100000
B(  0-C ,  1-C ) :   1.0052 B(  0-C ,  6-H ) :   0.9669 B(  0-C ,  7-H ) :   0.9615 
B(  0-C ,  8-H ) :   0.9649 B(  1-C ,  2-C ) :   1.0170 B(  1-C ,  3-C ) :   1.0174 
B(  1-C ,  4-C ) :   0.9915 B(  2-C ,  9-H ) :   0.9620 B(  2-C , 10-H ) :   0.9692 
B(  2-C , 11-H ) :   0.9679 B(  3-C , 12-H ) :   0.9629 B(  3-C , 13-H ) :   0.9670 
B(  3-C , 14-H ) :   0.9693 B(  4-C ,  5-Br) :   0.9777 B(  4-C , 15-H ) :   0.9475 
B(  4-C , 16-H ) :   0.9470 


------------------
HIRSHFELD ANALYSIS
------------------

Total integrated alpha density =     47.005380596
Total integrated beta density  =     47.005380596

  ATOM     CHARGE      SPIN    
   0 C   -0.078606    0.000000
   1 C    0.026712    0.000000
   2 C   -0.082153    0.000000
   3 C   -0.081637    0.000000
   4 C    0.009771    0.000000
   5 Br  -0.140269    0.000000
   6 H    0.022715    0.000000
   7 H    0.021338    0.000000
   8 H    0.020799    0.000000
   9 H    0.014941    0.000000
  10 H    0.027804    0.000000
  11 H    0.026022    0.000000
  12 H    0.016353    0.000000
  13 H    0.026089    0.000000
  14 H    0.027375    0.000000
  15 H    0.043911    0.000000
  16 H    0.043426    0.000000
  17 Cl  -0.955352    0.000000

  TOTAL  -1.010761    0.000000

-------
TIMINGS
-------

Total SCF time: 0 days 0 hours 0 min 16 sec 

Total time                  ....      16.102 sec
Sum of individual times     ....      15.591 sec  ( 96.8%)

Fock matrix formation       ....      14.389 sec  ( 89.4%)
  Split-RI-J                ....       1.866 sec  ( 13.0% of F)
  Chain of spheres X        ....       8.543 sec  ( 59.4% of F)
  XC integration            ....       0.736 sec  (  5.1% of F)
    Basis function eval.    ....       0.279 sec  ( 37.9% of XC)
    Density eval.           ....       0.133 sec  ( 18.1% of XC)
    XC-Functional eval.     ....       0.052 sec  (  7.0% of XC)
    XC-Potential eval.      ....       0.198 sec  ( 26.9% of XC)
Diagonalization             ....       0.019 sec  (  0.1%)
Density matrix formation    ....       0.005 sec  (  0.0%)
Population analysis         ....       0.049 sec  (  0.3%)
Initial guess               ....       0.173 sec  (  1.1%)
Orbital Transformation      ....       0.000 sec  (  0.0%)
Orbital Orthonormalization  ....       0.000 sec  (  0.0%)
DIIS solution               ....       0.006 sec  (  0.0%)
SOSCF solution              ....       0.013 sec  (  0.1%)
Grid generation             ....       0.937 sec  (  5.8%)


-------------------------------------------------------------------------------
                          DFT DISPERSION CORRECTION                            
                                                                               
                              DFTD3 V3.1  Rev 1                                
                          USING Becke-Johnson damping                          
-------------------------------------------------------------------------------
The PBE0 functional is recognized
Active option DFTDOPT                   ...         4   

molecular C6(AA) [au] = 3994.965564 


            DFT-D V3
 parameters
 s6 scaling factor         :     1.0000 
 a1 scaling factor         :     0.4145 
 s8 scaling factor         :     1.2177 
 a2 scaling factor         :     4.8593 
 ad hoc parameters k1-k3   :    16.0000     1.3333    -4.0000 

 Edisp/kcal,au: -9.631033081737  -0.015348026528 
 E6   /kcal   :  -6.017759996 
 E8   /kcal   :  -3.613273086 
 % E8         :  37.516983437 

-------------------------   ----------------
Dispersion correction           -0.015348027
-------------------------   ----------------


-------------------------   --------------------
FINAL SINGLE POINT ENERGY     -3230.402793480272
-------------------------   --------------------

[1631719786.422107] [comp0802:138261:0]            sys.c:618  UCX  ERROR shmget(size=2097152 flags=0xfb0) for mm_recv_desc failed: Operation not permitted, please check shared memory limits by 'ipcs -l'
[1631719786.430648] [comp0802:138259:0]            sys.c:618  UCX  ERROR shmget(size=2097152 flags=0xfb0) for mm_recv_desc failed: Operation not permitted, please check shared memory limits by 'ipcs -l'
[1631719786.444253] [comp0802:138260:0]            sys.c:618  UCX  ERROR shmget(size=2097152 flags=0xfb0) for mm_recv_desc failed: Operation not permitted, please check shared memory limits by 'ipcs -l'
[1631719786.445531] [comp0802:138262:0]            sys.c:618  UCX  ERROR shmget(size=2097152 flags=0xfb0) for mm_recv_desc failed: Operation not permitted, please check shared memory limits by 'ipcs -l'
[1631719786.465176] [comp0802:138259:0]            sys.c:618  UCX  ERROR shmget(size=2097152 flags=0xb80) for ucp_am_bufs failed: Operation not permitted, please check shared memory limits by 'ipcs -l'
[1631719786.466074] [comp0802:138262:0]            sys.c:618  UCX  ERROR shmget(size=2097152 flags=0xb80) for ucp_am_bufs failed: Operation not permitted, please check shared memory limits by 'ipcs -l'


           ************************************************************
           *        Program running with 4 parallel MPI-processes     *
           *              working on a common directory               *
           ************************************************************
[1631719786.590931] [comp0802:138261:0]            sys.c:618  UCX  ERROR shmget(size=2097152 flags=0xb80) for ucp_am_bufs failed: Operation not permitted, please check shared memory limits by 'ipcs -l'
[1631719786.590976] [comp0802:138260:0]            sys.c:618  UCX  ERROR shmget(size=2097152 flags=0xb80) for ucp_am_bufs failed: Operation not permitted, please check shared memory limits by 'ipcs -l'
------------------------------------------------------------------------------
                         ORCA SCF GRADIENT CALCULATION
------------------------------------------------------------------------------

Gradient of the Kohn-Sham DFT energy:
Kohn-Sham wavefunction type      ... RKS
Hartree-Fock exchange scaling    ...    0.250
Number of operators              ...    1
Number of atoms                  ...   18
Basis set dimensions             ...  175
Integral neglect threshold       ... 2.5e-11
Integral primitive cutoff        ... 2.5e-12

Nuclear repulsion gradient       ... done
One Electron Gradient            ... done
Pre-screening matrix             ... done
RI-J gradient                    ... done
COSX-gradient                    ... done
Exchange-correlation gradient    ... done
Dispersion correction            ... done

------------------
CARTESIAN GRADIENT
------------------

   1   C   :   -0.000437912   -0.000189910   -0.000439419
   2   C   :   -0.000014676   -0.000089629   -0.000034453
   3   C   :    0.000054817    0.000123011   -0.000062870
   4   C   :   -0.000072109   -0.000120129   -0.000001969
   5   C   :   -0.000201805    0.000182050    0.000101581
   6   Br  :   -0.000078308    0.000129794    0.000183476
   7   H   :   -0.000348595   -0.000161913   -0.000081777
   8   H   :   -0.000353507   -0.000395678   -0.000816158
   9   H   :   -0.000003315    0.000281305   -0.000336795
  10   H   :   -0.000138920    0.000150361    0.000028859
  11   H   :   -0.000135788    0.000092711   -0.000116829
  12   H   :   -0.000131516    0.000099072    0.000069376
  13   H   :   -0.000034365    0.000133800   -0.000068509
  14   H   :   -0.000006825    0.000016210   -0.000087881
  15   H   :   -0.000021662    0.000073591   -0.000212427
  16   H   :   -0.000015274   -0.000187933    0.000209700
  17   H   :    0.000115884   -0.000022671    0.000175973
  18   Cl  :    0.001064514   -0.000340148    0.001022427

Difference to translation invariance:
           :   -0.0007593636   -0.0002261067   -0.0004676945

Norm of the cartesian gradient     ...    0.0021270632
RMS gradient                       ...    0.0002894566
MAX gradient                       ...    0.0010645137

-------
TIMINGS
-------

Total SCF gradient time            ...        3.655 sec

One electron gradient       ....       0.043 sec  (  1.2%)
Prescreening matrices       ....       0.109 sec  (  3.0%)
RI-J Coulomb gradient       ....       0.302 sec  (  8.3%)
COSX gradient               ....       1.296 sec  ( 35.5%)
XC gradient                 ....       0.840 sec  ( 23.0%)
CPCM gradient               ....       0.458 sec  ( 12.5%)
   A-Matrix (El+Nuc)        ....       0.021 sec  (  0.6%)
   Potential                ....       0.437 sec  ( 12.0%)
------------------------------------------------------------------------------
                         ORCA GEOMETRY RELAXATION STEP
------------------------------------------------------------------------------

Reading the OPT-File                    .... done
Getting information on internals        .... done
Copying old internal coords+grads       .... done
Making the new internal coordinates     .... (new redundants).... done
Validating the new internal coordinates .... (new redundants).... done
Calculating the B-matrix                .... done
Calculating the G,G- and P matrices     .... done
Transforming gradient to internals      .... done
Projecting the internal gradient        .... done
Number of atoms                         ....  18
Number of internal coordinates          ....  93
Current Energy                          .... -3230.402793480 Eh
Current gradient norm                   ....     0.002127063 Eh/bohr
Maximum allowed component of the step   ....  0.300
Current trust radius                    ....  0.300
Evaluating the initial hessian          ....  (Almloef) done
Projecting the Hessian                  .... done
Forming the augmented Hessian           .... done
Diagonalizing the augmented Hessian     .... done
Last element of RFO vector              ....  0.753159389
Lowest eigenvalues of augmented Hessian:
 -0.000695448  0.000900645  0.011281034  0.011317487  0.011406721
Length of the computed step             ....  0.873438061
Warning: the length of the step is outside the trust region - taking restricted step instead
The input lambda is                     ....    -0.000695
   iter:   1  x=   -0.001095  g= 1684.849624 f(x)=     0.672894
   iter:   2  x=   -0.001588  g=  563.000909 f(x)=     0.277412
   iter:   3  x=   -0.002069  g=  215.343045 f(x)=     0.103639
   iter:   4  x=   -0.002358  g=  105.696710 f(x)=     0.030519
   iter:   5  x=   -0.002425  g=   73.899526 f(x)=     0.004955
   iter:   6  x=   -0.002427  g=   68.400386 f(x)=     0.000188
   iter:   7  x=   -0.002427  g=   68.187321 f(x)=     0.000000
   iter:   8  x=   -0.002427  g=   68.186988 f(x)=     0.000000
   iter:   9  x=   -0.002427  g=   68.186988 f(x)=    -0.000000
The output lambda is                    ....    -0.002427 (9 iterations)
The final length of the internal step   ....  0.300000000
Converting the step to cartesian space:
 Initial RMS(Int)=    0.0311085508
Transforming coordinates:
 Iter   0:  RMS(Cart)=    0.0203377912 RMS(Int)=    0.0310816153
 Iter   1:  RMS(Cart)=    0.0000331261 RMS(Int)=    0.0000327241
 Iter   2:  RMS(Cart)=    0.0000004646 RMS(Int)=    0.0000002055
 Iter   3:  RMS(Cart)=    0.0000000079 RMS(Int)=    0.0000000037
done
Storing new coordinates                 .... done

                                .--------------------.
          ----------------------|Geometry convergence|-------------------------
          Item                value                   Tolerance       Converged
          ---------------------------------------------------------------------
          RMS gradient        0.0001153533            0.0001000000      NO
          MAX gradient        0.0006315955            0.0003000000      NO
          RMS step            0.0311085508            0.0020000000      NO
          MAX step            0.1547066487            0.0040000000      NO
          ........................................................
          Max(Bonds)      0.0819      Max(Angles)    0.15
          Max(Dihed)        0.13      Max(Improp)    0.00
          ---------------------------------------------------------------------

[...]
 152   0.0000       2.453167        66.7541 
 153   0.0000       2.469694        67.2038 
 154   0.0000       2.619644        71.2841 
 155   0.0000       2.630454        71.5783 
 156   0.0000       2.650188        72.1153 
 157   0.0000       2.653610        72.2084 
 158   0.0000       2.673142        72.7399 
 159   0.0000       2.749828        74.8266 
 160   0.0000       2.878824        78.3368 
 161   0.0000       2.895631        78.7941 
 162   0.0000       2.899376        78.8960 
 163   0.0000       2.917101        79.3783 
 164   0.0000       2.928701        79.6940 
 165   0.0000       2.981832        81.1398 
 166   0.0000       3.007224        81.8307 
 167   0.0000       3.023658        82.2779 
 168   0.0000       3.114924        84.7614 
 169   0.0000       3.133214        85.2591 
 170   0.0000       3.495065        95.1055 
 171   0.0000       3.496421        95.1425 
 172   0.0000       3.597215        97.8852 
 173   0.0000       3.597933        97.9047 
 174   0.0000       3.858329       104.9905 

                    ********************************
                    * MULLIKEN POPULATION ANALYSIS *
                    ********************************

-----------------------
MULLIKEN ATOMIC CHARGES
-----------------------
   0 C :    0.016673
   1 C :   -0.384851
   2 C :   -0.008489
   3 C :   -0.007120
   4 C :   -0.022881
   5 Br:   -0.193975
   6 H :    0.026759
   7 H :    0.025923
   8 H :    0.027821
   9 H :    0.040959
  10 H :    0.048176
  11 H :    0.043660
  12 H :    0.042208
  13 H :    0.043868
  14 H :    0.045782
  15 H :    0.100127
  16 H :    0.100764
  17 Cl:   -0.945405
Sum of atomic charges:   -1.0000000

--------------------------------
MULLIKEN REDUCED ORBITAL CHARGES
--------------------------------
  0 C s       :     3.020586  s :     3.020586
      pz      :     0.937184  p :     2.935681
      px      :     0.981653
      py      :     1.016844
      dz2     :     0.007426  d :     0.027060
      dxz     :     0.007814
      dyz     :     0.001577
      dx2y2   :     0.001853
      dxy     :     0.008390
  1 C s       :     3.264847  s :     3.264847
      pz      :     1.048567  p :     3.066360
      px      :     1.021013
      py      :     0.996780
      dz2     :     0.012163  d :     0.053644
      dxz     :     0.012244
      dyz     :     0.007144
      dx2y2   :     0.008584
      dxy     :     0.013507
  2 C s       :     3.028584  s :     3.028584
      pz      :     0.958039  p :     2.953095
      px      :     0.981829
      py      :     1.013228
      dz2     :     0.007692  d :     0.026810
      dxz     :     0.007257
      dyz     :     0.001350
      dx2y2   :     0.001944
      dxy     :     0.008567
  3 C s       :     3.027302  s :     3.027302
      pz      :     1.012500  p :     2.953036
      px      :     0.987893
      py      :     0.952644
      dz2     :     0.005171  d :     0.026781
      dxz     :     0.008581
      dyz     :     0.001574
      dx2y2   :     0.003901
      dxy     :     0.007554
  4 C s       :     3.129749  s :     3.129749
      pz      :     0.885422  p :     2.857897
      px      :     0.945722
      py      :     1.026752
      dz2     :     0.006634  d :     0.035236
      dxz     :     0.010549
      dyz     :     0.003583
      dx2y2   :     0.005618
      dxy     :     0.008851
  5 Brs       :     7.969686  s :     7.969686
      pz      :     5.518577  p :    17.181649
      px      :     5.716605
      py      :     5.946467
      dz2     :     2.011438  d :    10.042639
      dxz     :     2.017286
      dyz     :     2.005784
      dx2y2   :     2.004270
      dxy     :     2.003861
  6 H s       :     0.949440  s :     0.949440
      pz      :     0.011047  p :     0.023801
      px      :     0.007448
      py      :     0.005306
  7 H s       :     0.950058  s :     0.950058
      pz      :     0.004389  p :     0.024019
      px      :     0.008612
      py      :     0.011019
  8 H s       :     0.948377  s :     0.948377
      pz      :     0.004326  p :     0.023802
      px      :     0.008382
      py      :     0.011094
  9 H s       :     0.934783  s :     0.934783
      pz      :     0.011275  p :     0.024257
      px      :     0.007765
      py      :     0.005218
 10 H s       :     0.928006  s :     0.928006
      pz      :     0.004361  p :     0.023818
      px      :     0.008492
      py      :     0.010965
 11 H s       :     0.932728  s :     0.932728
      pz      :     0.004303  p :     0.023612
      px      :     0.007734
      py      :     0.011574
 12 H s       :     0.933623  s :     0.933623
      pz      :     0.011550  p :     0.024169
      px      :     0.008181
      py      :     0.004439
 13 H s       :     0.932534  s :     0.932534
      pz      :     0.011200  p :     0.023597
      px      :     0.008175
      py      :     0.004222
 14 H s       :     0.930397  s :     0.930397
      pz      :     0.005185  p :     0.023820
      px      :     0.007885
      py      :     0.010751
 15 H s       :     0.877102  s :     0.877102
      pz      :     0.010481  p :     0.022771
      px      :     0.008297
      py      :     0.003994
 16 H s       :     0.876513  s :     0.876513
      pz      :     0.003633  p :     0.022723
      px      :     0.007559
      py      :     0.011531
 17 Cls       :     5.997810  s :     5.997810
      pz      :     3.971095  p :    11.947522
      px      :     3.983566
      py      :     3.992861
      dz2     :     0.000020  d :     0.000073
      dxz     :     0.000031
      dyz     :     0.000010
      dx2y2   :     0.000007
      dxy     :     0.000004


                     *******************************
                     * LOEWDIN POPULATION ANALYSIS *
                     *******************************

----------------------
LOEWDIN ATOMIC CHARGES
----------------------
   0 C :   -0.055956
   1 C :   -0.092186
   2 C :   -0.061931
   3 C :   -0.060913
   4 C :   -0.064954
   5 Br:   -0.024583
   6 H :    0.022973
   7 H :    0.022268
   8 H :    0.023113
   9 H :    0.020851
  10 H :    0.031665
  11 H :    0.029628
  12 H :    0.021811
  13 H :    0.029517
  14 H :    0.031751
  15 H :    0.038726
  16 H :    0.038867
  17 Cl:   -0.950646

-------------------------------
LOEWDIN REDUCED ORBITAL CHARGES
-------------------------------
  0 C s       :     2.847900  s :     2.847900
      pz      :     1.020068  p :     3.136500
      px      :     1.046522
      py      :     1.069910
      dz2     :     0.019675  d :     0.071557
      dxz     :     0.021949
      dyz     :     0.003451
      dx2y2   :     0.004846
      dxy     :     0.021636
  1 C s       :     2.851509  s :     2.851509
      pz      :     1.051058  p :     3.118124
      px      :     1.039012
      py      :     1.028054
      dz2     :     0.028339  d :     0.122553
      dxz     :     0.029810
      dyz     :     0.012814
      dx2y2   :     0.017835
      dxy     :     0.033753
  2 C s       :     2.846525  s :     2.846525
      pz      :     1.031325  p :     3.144493
      px      :     1.047547
      py      :     1.065621
      dz2     :     0.020092  d :     0.070913
      dxz     :     0.020642
      dyz     :     0.002963
      dx2y2   :     0.005213
      dxy     :     0.022003
  3 C s       :     2.846619  s :     2.846619
      pz      :     1.066034  p :     3.143478
      px      :     1.048793
      py      :     1.028651
      dz2     :     0.014146  d :     0.070815
      dxz     :     0.022203
      dyz     :     0.003569
      dx2y2   :     0.009754
      dxy     :     0.021143
  4 C s       :     2.918006  s :     2.918006
      pz      :     0.958879  p :     3.062758
      px      :     1.023043
      py      :     1.080835
      dz2     :     0.016294  d :     0.084190
      dxz     :     0.024491
      dyz     :     0.007396
      dx2y2   :     0.012308
      dxy     :     0.023700
  5 Brs       :     7.824535  s :     7.824535
      pz      :     5.514769  p :    17.145804
      px      :     5.705437
      py      :     5.925597
      dz2     :     2.013601  d :    10.054245
      dxz     :     2.023079
      dyz     :     2.007579
      dx2y2   :     2.005141
      dxy     :     2.004844
  6 H s       :     0.910438  s :     0.910438
      pz      :     0.033090  p :     0.066589
      px      :     0.020433
      py      :     0.013066
  7 H s       :     0.910199  s :     0.910199
      pz      :     0.012535  p :     0.067534
      px      :     0.024029
      py      :     0.030969
  8 H s       :     0.910328  s :     0.910328
      pz      :     0.012576  p :     0.066559
      px      :     0.023342
      py      :     0.030641
  9 H s       :     0.910902  s :     0.910902
      pz      :     0.033649  p :     0.068246
      px      :     0.021692
      py      :     0.012905
 10 H s       :     0.901797  s :     0.901797
      pz      :     0.012934  p :     0.066537
      px      :     0.023598
      py      :     0.030006
 11 H s       :     0.904119  s :     0.904119
      pz      :     0.012645  p :     0.066253
      px      :     0.021868
      py      :     0.031741
 12 H s       :     0.910252  s :     0.910252
      pz      :     0.031848  p :     0.067937
      px      :     0.022660
      py      :     0.013429
 13 H s       :     0.904195  s :     0.904195
      pz      :     0.030803  p :     0.066288
      px      :     0.022698
      py      :     0.012786
 14 H s       :     0.901874  s :     0.901874
      pz      :     0.012769  p :     0.066375
      px      :     0.021840
      py      :     0.031767
 15 H s       :     0.889965  s :     0.889965
      pz      :     0.033634  p :     0.071310
      px      :     0.024489
      py      :     0.013187
 16 H s       :     0.889828  s :     0.889828
      pz      :     0.011974  p :     0.071304
      px      :     0.023528
      py      :     0.035803
 17 Cls       :     5.996849  s :     5.996849
      pz      :     3.973881  p :    11.953729
      px      :     3.985172
      py      :     3.994676
      dz2     :     0.000019  d :     0.000068
      dxz     :     0.000028
      dyz     :     0.000010
      dx2y2   :     0.000007
      dxy     :     0.000004


                      *****************************
                      * MAYER POPULATION ANALYSIS *
                      *****************************

  NA   - Mulliken gross atomic population
  ZA   - Total nuclear charge
  QA   - Mulliken gross atomic charge
  VA   - Mayer's total valence
  BVA  - Mayer's bonded valence
  FA   - Mayer's free valence

  ATOM       NA         ZA         QA         VA         BVA        FA
  0 C      5.9833     6.0000     0.0167     3.8685     3.8685     0.0000
  1 C      6.3849     6.0000    -0.3849     4.1030     4.1030     0.0000
  2 C      6.0085     6.0000    -0.0085     3.8619     3.8619    -0.0000
  3 C      6.0071     6.0000    -0.0071     3.8648     3.8648     0.0000
  4 C      6.0229     6.0000    -0.0229     3.8128     3.8128     0.0000
  5 Br    35.1940    35.0000    -0.1940     1.0515     1.0515     0.0000
  6 H      0.9732     1.0000     0.0268     1.0175     1.0175     0.0000
  7 H      0.9741     1.0000     0.0259     1.0366     1.0366    -0.0000
  8 H      0.9722     1.0000     0.0278     1.0147     1.0147    -0.0000
  9 H      0.9590     1.0000     0.0410     1.0061     1.0061     0.0000
 10 H      0.9518     1.0000     0.0482     0.9933     0.9933     0.0000
 11 H      0.9563     1.0000     0.0437     0.9920     0.9920    -0.0000
 12 H      0.9578     1.0000     0.0422     1.0041     1.0041    -0.0000
 13 H      0.9561     1.0000     0.0439     0.9917     0.9917    -0.0000
 14 H      0.9542     1.0000     0.0458     0.9943     0.9943     0.0000
 15 H      0.8999     1.0000     0.1001     0.9771     0.9771    -0.0000
 16 H      0.8992     1.0000     0.1008     0.9773     0.9773    -0.0000
 17 Cl    17.9454    17.0000    -0.9454     0.1084     0.1084    -0.0000

  Mayer bond orders larger than 0.100000
B(  0-C ,  1-C ) :   1.0015 B(  0-C ,  6-H ) :   0.9663 B(  0-C ,  7-H ) :   0.9602 
B(  0-C ,  8-H ) :   0.9660 B(  1-C ,  2-C ) :   1.0169 B(  1-C ,  3-C ) :   1.0180 
B(  1-C ,  4-C ) :   0.9904 B(  2-C ,  9-H ) :   0.9619 B(  2-C , 10-H ) :   0.9690 
B(  2-C , 11-H ) :   0.9679 B(  3-C , 12-H ) :   0.9629 B(  3-C , 13-H ) :   0.9669 
B(  3-C , 14-H ) :   0.9694 B(  4-C ,  5-Br) :   0.9767 B(  4-C , 15-H ) :   0.9478 
B(  4-C , 16-H ) :   0.9472 


------------------
HIRSHFELD ANALYSIS
------------------

Total integrated alpha density =     47.005801017
Total integrated beta density  =     47.005801017

  ATOM     CHARGE      SPIN    
   0 C   -0.081124    0.000000
   1 C    0.026536    0.000000
   2 C   -0.082675    0.000000
   3 C   -0.081776    0.000000
   4 C    0.009967    0.000000
   5 Br  -0.140867    0.000000
   6 H    0.019612    0.000000
   7 H    0.018101    0.000000
   8 H    0.019867    0.000000
   9 H    0.014561    0.000000
  10 H    0.027452    0.000000
  11 H    0.025636    0.000000
  12 H    0.015869    0.000000
  13 H    0.025764    0.000000
  14 H    0.027107    0.000000
  15 H    0.043695    0.000000
  16 H    0.043139    0.000000
  17 Cl  -0.942465    0.000000

  TOTAL  -1.011602    0.000000

-------
TIMINGS
-------

Total SCF time: 0 days 0 hours 0 min 7 sec 

Total time                  ....       7.948 sec
Sum of individual times     ....       7.555 sec  ( 95.1%)

Fock matrix formation       ....       6.706 sec  ( 84.4%)
  Split-RI-J                ....       0.782 sec  ( 11.7% of F)
  Chain of spheres X        ....       4.289 sec  ( 64.0% of F)
  COS-X 1 center corr.      ....       0.000 sec  (  0.0% of F)
  XC integration            ....       0.369 sec  (  5.5% of F)
    Basis function eval.    ....       0.143 sec  ( 38.6% of XC)
    Density eval.           ....       0.070 sec  ( 19.1% of XC)
    XC-Functional eval.     ....       0.027 sec  (  7.2% of XC)
    XC-Potential eval.      ....       0.099 sec  ( 26.9% of XC)
Diagonalization             ....       0.003 sec  (  0.0%)
Density matrix formation    ....       0.002 sec  (  0.0%)
Population analysis         ....       0.069 sec  (  0.9%)
Initial guess               ....       0.012 sec  (  0.1%)
Orbital Transformation      ....       0.000 sec  (  0.0%)
Orbital Orthonormalization  ....       0.007 sec  (  0.1%)
DIIS solution               ....       0.000 sec  (  0.0%)
SOSCF solution              ....       0.007 sec  (  0.1%)
Grid generation             ....       0.755 sec  (  9.5%)


-------------------------------------------------------------------------------
                          DFT DISPERSION CORRECTION                            
                                                                               
                              DFTD3 V3.1  Rev 1                                
                          USING Becke-Johnson damping                          
-------------------------------------------------------------------------------
The PBE0 functional is recognized
Active option DFTDOPT                   ...         4   

molecular C6(AA) [au] = 3994.943682 


            DFT-D V3
 parameters
 s6 scaling factor         :     1.0000 
 a1 scaling factor         :     0.4145 
 s8 scaling factor         :     1.2177 
 a2 scaling factor         :     4.8593 
 ad hoc parameters k1-k3   :    16.0000     1.3333    -4.0000 

 Edisp/kcal,au: -9.707957776512  -0.015470613819 
 E6   /kcal   :  -6.062204767 
 E8   /kcal   :  -3.645753009 
 % E8         :  37.554273443 

-------------------------   ----------------
Dispersion correction           -0.015470614
-------------------------   ----------------


-------------------------   --------------------
FINAL SINGLE POINT ENERGY     -3230.402741385741
-------------------------   --------------------

                                *** OPTIMIZATION RUN DONE ***

                            ***************************************
                            *     ORCA property calculations      *
                            ***************************************

                                    ---------------------
                                    Active property flags
                                    ---------------------
   (+) Dipole Moment


------------------------------------------------------------------------------
                       ORCA ELECTRIC PROPERTIES CALCULATION
------------------------------------------------------------------------------

Dipole Moment Calculation                       ... on
Quadrupole Moment Calculation                   ... off
Polarizability Calculation                      ... off
GBWName                                         ... manual_reactants_345_opt.gbw
Electron density file                           ... manual_reactants_345_opt.scfp
The origin for moment calculation is the CENTER OF MASS  = (-0.103220, -0.057161  0.019080)

-------------
DIPOLE MOMENT
-------------
                                X             Y             Z
Electronic contribution:    -21.45588      16.69872     -15.54045
Nuclear contribution   :     16.22398     -14.91859       9.25411
                        -----------------------------------------
Total Dipole Moment    :     -5.23190       1.78013      -6.28634
                        -----------------------------------------
Magnitude (a.u.)       :      8.37016
Magnitude (Debye)      :     21.27527



--------------------
Rotational spectrum 
--------------------
 
Rotational constants in cm-1:     0.107018     0.010698     0.010408 
Rotational constants in MHz :  3208.325919   320.707515   312.018805 

 Dipole components along the rotational axes: 
x,y,z [a.u.] :    -8.339478    -0.715996     0.009887 
x,y,z [Debye]:   -21.197269    -1.819916     0.025131 

 
[1631720110.373786] [comp0802:139743:0]            sys.c:618  UCX  ERROR shmget(size=2097152 flags=0xfb0) for mm_recv_desc failed: Operation not permitted, please check shared memory limits by 'ipcs -l'
[1631720110.383051] [comp0802:139741:0]            sys.c:618  UCX  ERROR shmget(size=2097152 flags=0xfb0) for mm_recv_desc failed: Operation not permitted, please check shared memory limits by 'ipcs -l'
[1631720110.395934] [comp0802:139742:0]            sys.c:618  UCX  ERROR shmget(size=2097152 flags=0xfb0) for mm_recv_desc failed: Operation not permitted, please check shared memory limits by 'ipcs -l'
[1631720110.396420] [comp0802:139745:0]            sys.c:618  UCX  ERROR shmget(size=2097152 flags=0xfb0) for mm_recv_desc failed: Operation not permitted, please check shared memory limits by 'ipcs -l'
[1631720110.416513] [comp0802:139743:0]            sys.c:618  UCX  ERROR shmget(size=2097152 flags=0xb80) for ucp_am_bufs failed: Operation not permitted, please check shared memory limits by 'ipcs -l'
[1631720110.416519] [comp0802:139741:0]            sys.c:618  UCX  ERROR shmget(size=2097152 flags=0xb80) for ucp_am_bufs failed: Operation not permitted, please check shared memory limits by 'ipcs -l'
[1631720110.418996] [comp0802:139742:0]            sys.c:618  UCX  ERROR shmget(size=2097152 flags=0xb80) for ucp_am_bufs failed: Operation not permitted, please check shared memory limits by 'ipcs -l'
[1631720110.423604] [comp0802:139745:0]            sys.c:618  UCX  ERROR shmget(size=2097152 flags=0xb80) for ucp_am_bufs failed: Operation not permitted, please check shared memory limits by 'ipcs -l'

Timings for individual modules:

Sum of individual times         ...      343.029 sec (=   5.717 min)
GTO integral calculation        ...       27.624 sec (=   0.460 min)   8.1 %
SCF iterations                  ...      219.979 sec (=   3.666 min)  64.1 %
SCF Gradient evaluation         ...       89.946 sec (=   1.499 min)  26.2 %
Geometry relaxation             ...        5.480 sec (=   0.091 min)   1.6 %
                             ****ORCA TERMINATED NORMALLY****
TOTAL RUN TIME: 0 days 0 hours 5 minutes 50 seconds 46 msec
