
                                 *****************
                                 * O   R   C   A *
                                 *****************

           --- An Ab Initio, DFT and Semiempirical electronic structure package ---

                  #######################################################
                  #                        -***-                        #
                  #          Department of theory and spectroscopy      #
                  #               Directorship: Frank Neese             #
                  #        Max Planck Institute fuer Kohlenforschung    #
                  #                Kaiser Wilhelm Platz 1               #
                  #                 D-45470 Muelheim/Ruhr               #
                  #                      Germany                        #
                  #                                                     #
                  #                  All rights reserved                #
                  #                        -***-                        #
                  #######################################################


                         Program Version 4.2.1 -  RELEASE  -


 With contributions from (in alphabetic order):
   Daniel Aravena         : Magnetic Suceptibility
   Michael Atanasov       : Ab Initio Ligand Field Theory (pilot matlab implementation)
   Alexander A. Auer      : GIAO ZORA, VPT2
   Ute Becker             : Parallelization
   Giovanni Bistoni       : ED, misc. LED, open-shell LED, HFLD
   Martin Brehm           : Molecular dynamics
   Dmytro Bykov           : SCF Hessian
   Vijay G. Chilkuri      : MRCI spin determinant printing, contributions to CSF-ICE
   Dipayan Datta          : RHF DLPNO-CCSD density
   Achintya Kumar Dutta   : EOM-CC, STEOM-CC
   Dmitry Ganyushin       : Spin-Orbit,Spin-Spin,Magnetic field MRCI
   Miquel Garcia          : C-PCM Hessian, Gaussian charge scheme
   Yang Guo               : DLPNO-NEVPT2, CIM, IAO-localization
   Andreas Hansen         : Spin unrestricted coupled pair/coupled cluster methods
   Benjamin Helmich-Paris : CASSCF linear response (MC-RPA)
   Lee Huntington         : MR-EOM, pCC
   Robert Izsak           : Overlap fitted RIJCOSX, COSX-SCS-MP3, EOM
   Christian Kollmar      : KDIIS, OOCD, Brueckner-CCSD(T), CCSD density
   Simone Kossmann        : Meta GGA functionals, TD-DFT gradient, OOMP2, MP2 Hessian
   Martin Krupicka        : AUTO-CI
   Lucas Lang             : DCDCAS
   Dagmar Lenk            : GEPOL surface, SMD
   Dimitrios Liakos       : Extrapolation schemes; Compound Job, initial MDCI parallelization
   Dimitrios Manganas     : Further ROCIS development; embedding schemes
   Dimitrios Pantazis     : SARC Basis sets
   Taras Petrenko         : DFT Hessian,TD-DFT gradient, ASA, ECA, R-Raman, ABS, FL, XAS/XES, NRVS
   Peter Pinski           : DLPNO-MP2, DLPNO-MP2 Gradient
   Christoph Reimann      : Effective Core Potentials
   Marius Retegan         : Local ZFS, SOC
   Christoph Riplinger    : Optimizer, TS searches, QM/MM, DLPNO-CCSD(T), (RO)-DLPNO pert. Triples
   Tobias Risthaus        : Range-separated hybrids, TD-DFT gradient, RPA, STAB
   Michael Roemelt        : Original ROCIS implementation
   Masaaki Saitow         : Open-shell DLPNO-CCSD energy and density
   Barbara Sandhoefer     : DKH picture change effects
   Avijit Sen             : IP-ROCIS
   Kantharuban Sivalingam : CASSCF convergence, NEVPT2, FIC-MRCI
   Bernardo de Souza      : ESD, SOC TD-DFT
   Georgi Stoychev        : AutoAux, RI-MP2 NMR
   Willem Van den Heuvel  : Paramagnetic NMR
   Boris Wezisla          : Elementary symmetry handling
   Frank Wennmohs         : Technical directorship


 We gratefully acknowledge several colleagues who have allowed us to
 interface, adapt or use parts of their codes:
   Stefan Grimme, W. Hujo, H. Kruse,             : VdW corrections, initial TS optimization,
                  C. Bannwarth                     DFT functionals, gCP, sTDA/sTD-DF
   Ed Valeev, F. Pavosevic, A. Kumar             : LibInt (2-el integral package), F12 methods
   Garnet Chan, S. Sharma, J. Yang, R. Olivares  : DMRG
   Ulf Ekstrom                                   : XCFun DFT Library
   Mihaly Kallay                                 : mrcc  (arbitrary order and MRCC methods)
   Andreas Klamt, Michael Diedenhofen            : otool_cosmo (COSMO solvation model)
   Jiri Pittner, Ondrej Demel                    : Mk-CCSD
   Frank Weinhold                                : gennbo (NPA and NBO analysis)
   Christopher J. Cramer and Donald G. Truhlar   : smd solvation model
   Lars Goerigk                                  : TD-DFT with DH, B97 family of functionals
   V. Asgeirsson, H. Jonsson                     : NEB implementation
   FAccTs GmbH                                   : IRC, NEB, NEB-TS, Multilevel, MM, QM/MM, CI optimization
   S Lehtola, MJT Oliveira, MAL Marques          : LibXC Library


 Your calculation uses the libint2 library for the computation of 2-el integrals
 For citations please refer to: http://libint.valeyev.net

 Your ORCA version has been built with support for libXC version: 4.2.3
 For citations please refer to: https://tddft.org/programs/libxc/

 This ORCA versions uses:
   CBLAS   interface :  Fast vector & matrix operations
   LAPACKE interface :  Fast linear algebra routines
   SCALAPACK package :  Parallel linear algebra routines


Your calculation utilizes the atom-pairwise dispersion correction
with the Becke-Johnson damping scheme (D3BJ)
Cite in your paper:
S.Grimme, S.Ehrlich, L.Goerigk, J Comput Chem, (2011), 32, 1456–1465 
S.Grimme, J.Antony, S.Ehrlich and H.Krieg, J.Chem.Phys., 132, (2010), 154104 
   

----- Orbital basis set information -----
Your calculation utilizes the basis: def2-SVP
   F. Weigend and R. Ahlrichs, Phys. Chem. Chem. Phys. 7, 3297 (2005).

----- AuxJ basis set information -----
Your calculation utilizes the auxiliary basis: def2/J
   F. Weigend, Phys. Chem. Chem. Phys. 8, 1057 (2006).

================================================================================
                                        WARNINGS
                       Please study these warnings very carefully!
================================================================================


WARNING: Geometry Optimization
  ===> : Switching off AutoStart
         For restart on a previous wavefunction, please use MOREAD

INFO   : the flag for use of LIBINT has been found!

================================================================================
                                       INPUT FILE
================================================================================
NAME = manual_reactants_336_opt.inp
|  1> ! Opt PBE0 RIJCOSX D3BJ def2-SVP def2/J CPCM(Acetone)
|  2> %geom MaxIter 100 end
|  3> %output 
|  4> xyzfile=True 
|  5> end 
|  6> %scf 
|  7> maxiter 250 
|  8> end
|  9> %output
| 10> Print[P_Hirshfeld] = 1
| 11> end
| 12> % maxcore
| 13> 4000
| 14> %pal nprocs 4
| 15> end
| 16> *xyz -1 1
| 17> C    -2.76174   0.29657   0.67652
| 18> C    -1.75988   0.20079  -0.46559
| 19> C    -0.37659   0.60811  -0.01154
| 20> Br    0.94746   0.31038  -1.42846
| 21> H    -3.74280  -0.09076   0.36143
| 22> H    -2.40460  -0.28480   1.54129
| 23> H    -2.89880   1.33796   1.00925
| 24> H    -1.71994  -0.83672  -0.83623
| 25> H    -2.07518   0.82564  -1.31745
| 26> H    -0.03844   0.01903   0.85706
| 27> H    -0.30906   1.67830   0.22881
| 28> Cl   -0.10101  -1.14933   3.09948
| 29> *
| 30> 
| 31>                          ****END OF INPUT****
================================================================================

                       *****************************
                       * Geometry Optimization Run *
                       *****************************

Geometry optimization settings:
Update method            Update   .... BFGS
Choice of coordinates    CoordSys .... Z-matrix Internals
Initial Hessian          InHess   .... Almoef's Model

Convergence Tolerances:
Energy Change            TolE     ....  5.0000e-06 Eh
Max. Gradient            TolMAXG  ....  3.0000e-04 Eh/bohr
RMS Gradient             TolRMSG  ....  1.0000e-04 Eh/bohr
Max. Displacement        TolMAXD  ....  4.0000e-03 bohr
RMS Displacement         TolRMSD  ....  2.0000e-03 bohr
Strict Convergence                ....  False
------------------------------------------------------------------------------
                        ORCA OPTIMIZATION COORDINATE SETUP
------------------------------------------------------------------------------

The optimization will be done in new redundant internal coordinates
Making redundant internal coordinates   ...  (new redundants) done
Evaluating the initial hessian          ...  (Almloef) done
Evaluating the coordinates              ...  done
Calculating the B-matrix                .... done
Calculating the G-matrix                .... done
Diagonalizing the G-matrix              .... done
The first mode is                       ....   29
The number of degrees of freedom        ....   30

    -----------------------------------------------------------------
                    Redundant Internal Coordinates


    -----------------------------------------------------------------
         Definition                    Initial Value    Approx d2E/dq
    -----------------------------------------------------------------
      1. B(C   1,C   0)                  1.5223         0.384332   
      2. B(C   2,C   1)                  1.5118         0.399395   
      3. B(Br  3,C   2)                  1.9620         0.256836   
      4. B(H   4,C   0)                  1.1008         0.346079   
      5. B(H   5,C   0)                  1.1015         0.345166   
      6. B(H   6,C   0)                  1.1018         0.344809   
      7. B(H   7,C   1)                  1.1025         0.344001   
      8. B(H   8,C   1)                  1.1025         0.343932   
      9. B(H   9,C   2)                  1.1026         0.343754   
     10. B(H  10,C   2)                  1.0989         0.348485   
     11. B(Cl 11,H   9)                  2.5293         0.004084   
     12. B(Cl 11,H   5)                  2.9124         0.001000   
     13. A(H   4,C   0,H   5)          109.1449         0.287125   
     14. A(C   1,C   0,H   5)          110.0242         0.323576   
     15. A(H   4,C   0,H   6)          107.9471         0.287078   
     16. A(C   1,C   0,H   6)          111.5866         0.323521   
     17. A(H   5,C   0,H   6)          107.5836         0.286960   
     18. A(C   1,C   0,H   4)          110.4659         0.323716   
     19. A(H   7,C   1,H   8)          106.4970         0.286694   
     20. A(C   2,C   1,H   8)          109.9398         0.325434   
     21. A(C   0,C   1,H   8)          110.8439         0.323386   
     22. A(C   0,C   1,C   2)          111.0942         0.369329   
     23. A(C   0,C   1,H   7)          109.5904         0.323397   
     24. A(C   2,C   1,H   7)          108.7463         0.325445   
     25. A(Br  3,C   2,H   9)          106.3120         0.321100   
     26. A(C   1,C   2,H   9)          111.9162         0.325407   
     27. A(C   1,C   2,Br  3)          111.0817         0.366627   
     28. A(H   9,C   2,H  10)          109.2165         0.287252   
     29. A(Br  3,C   2,H  10)          105.3231         0.321819   
     30. A(C   1,C   2,H  10)          112.6000         0.326139   
     31. A(C   0,H   5,Cl 11)          146.4236         0.145984   
     32. A(C   2,H   9,Cl 11)          159.6499         0.167284   
     33. A(H   5,Cl 11,H   9)           53.7085         0.111550   
     34. D(H   8,C   1,C   0,H   4)     62.7402         0.011759   
     35. D(H   7,C   1,C   0,H   6)   -174.6101         0.011759   
     36. D(H   7,C   1,C   0,H   4)    -54.5196         0.011759   
     37. D(H   8,C   1,C   0,H   5)   -176.6898         0.011759   
     38. D(H   7,C   1,C   0,H   5)     66.0504         0.011759   
     39. D(C   2,C   1,C   0,H   6)     65.1970         0.011759   
     40. D(C   2,C   1,C   0,H   5)    -54.1425         0.011759   
     41. D(H   8,C   1,C   0,H   6)    -57.3504         0.011759   
     42. D(C   2,C   1,C   0,H   4)   -174.7125         0.011759   
     43. D(H   9,C   2,C   1,H   7)    -65.1636         0.012658   
     44. D(H   9,C   2,C   1,C   0)     55.5285         0.012658   
     45. D(Br  3,C   2,C   1,H   8)    -62.7461         0.012658   
     46. D(Br  3,C   2,C   1,H   7)     53.4930         0.012658   
     47. D(H   9,C   2,C   1,H   8)    178.5973         0.012658   
     48. D(Br  3,C   2,C   1,C   0)    174.1852         0.012658   
     49. D(H  10,C   2,C   1,H   8)     55.1095         0.012658   
     50. D(H  10,C   2,C   1,H   7)    171.3486         0.012658   
     51. D(H  10,C   2,C   1,C   0)    -67.9592         0.012658   
     52. D(Cl 11,H   5,C   0,H   6)    -86.2699         0.109600   
     53. D(Cl 11,H   5,C   0,H   4)    156.8464         0.109600   
     54. D(Cl 11,H   5,C   0,C   1)     35.4836         0.109600   
     55. D(Cl 11,H   9,C   2,H  10)     81.0422         0.108518   
     56. D(Cl 11,H   9,C   2,Br  3)   -165.7793         0.108518   
     57. D(Cl 11,H   9,C   2,C   1)    -44.3316         0.108518   
     58. D(H   5,Cl 11,H   9,C   2)     17.2650         0.001502   
     59. D(H   9,Cl 11,H   5,C   0)    -10.2462         0.001500   
    -----------------------------------------------------------------

Number of atoms                         .... 12
Number of degrees of freedom            .... 59

         *************************************************************
         *                GEOMETRY OPTIMIZATION CYCLE   1            *
         *************************************************************
---------------------------------
CARTESIAN COORDINATES (ANGSTROEM)
---------------------------------
  C     -2.761740    0.296570    0.676520
  C     -1.759880    0.200790   -0.465590
  C     -0.376590    0.608110   -0.011540
  Br     0.947460    0.310380   -1.428460
  H     -3.742800   -0.090760    0.361430
  H     -2.404600   -0.284800    1.541290
  H     -2.898800    1.337960    1.009250
  H     -1.719940   -0.836720   -0.836230
  H     -2.075180    0.825640   -1.317450
  H     -0.038440    0.019030    0.857060
  H     -0.309060    1.678300    0.228810
  Cl    -0.101010   -1.149330    3.099480

----------------------------
CARTESIAN COORDINATES (A.U.)
----------------------------
  NO LB      ZA    FRAG     MASS         X           Y           Z
   0 C     6.0000    0    12.011   -5.218932    0.560436    1.278438
   1 C     6.0000    0    12.011   -3.325691    0.379438   -0.879838
   2 C     6.0000    0    12.011   -0.711652    1.149161   -0.021807
   3 Br   35.0000    0    79.900    1.790440    0.586533   -2.699398
   4 H     1.0000    0     1.008   -7.072867   -0.171512    0.683004
   5 H     1.0000    0     1.008   -4.544035   -0.538194    2.912616
   6 H     1.0000    0     1.008   -5.477938    2.528378    1.907206
   7 H     1.0000    0     1.008   -3.250216   -1.581172   -1.580246
   8 H     1.0000    0     1.008   -3.921522    1.560233   -2.489620
   9 H     1.0000    0     1.008   -0.072641    0.035961    1.619609
  10 H     1.0000    0     1.008   -0.584039    3.171527    0.432388
  11 Cl   17.0000    0    35.453   -0.190881   -2.171919    5.857168

--------------------------------
INTERNAL COORDINATES (ANGSTROEM)
--------------------------------
 C      0   0   0     0.000000000000     0.00000000     0.00000000
 C      1   0   0     1.522272157040     0.00000000     0.00000000
 C      2   1   0     1.511807596555   111.09424594     0.00000000
 Br     3   2   1     1.961992314409   111.08167590   174.18518517
 H      1   2   3     1.100811046729   110.46585317   185.28754139
 H      1   2   3     1.101529486396   110.02420905   305.85753194
 H      1   2   3     1.101811158321   111.58656266    65.19698652
 H      2   1   3     1.102450095605   109.59036270   120.19289300
 H      2   1   3     1.102504907971   110.84393043   237.45264129
 H      3   2   1     1.102645286980   111.91620026    55.52852992
 H      3   2   1     1.098924501274   112.60001789   292.04076033
 Cl    10   3   2     2.529313652140   159.64993146   315.66836882

---------------------------
INTERNAL COORDINATES (A.U.)
---------------------------
 C      0   0   0     0.000000000000     0.00000000     0.00000000
 C      1   0   0     2.876677478100     0.00000000     0.00000000
 C      2   1   0     2.856902324670   111.09424594     0.00000000
 Br     3   2   1     3.707628151091   111.08167590   174.18518517
 H      1   2   3     2.080231403512   110.46585317   185.28754139
 H      1   2   3     2.081589057728   110.02420905   305.85753194
 H      1   2   3     2.082121340525   111.58656266    65.19698652
 H      2   1   3     2.083328757009   109.59036270   120.19289300
 H      2   1   3     2.083432337369   110.84393043   237.45264129
 H      3   2   1     2.083697615252   111.91620026    55.52852992
 H      3   2   1     2.076666349264   112.60001789   292.04076033
 Cl    10   3   2     4.779710109332   159.64993146   315.66836882

---------------------
BASIS SET INFORMATION
---------------------
There are 4 groups of distinct atoms

 Group   1 Type C   : 7s4p1d contracted to 3s2p1d pattern {511/31/1}
 Group   2 Type Br  : 14s10p6d contracted to 5s4p3d pattern {63311/5311/411}
 Group   3 Type H   : 4s1p contracted to 2s1p pattern {31/1}
 Group   4 Type Cl  : 10s7p1d contracted to 4s3p1d pattern {5311/511/1}

Atom   0C    basis set group =>   1
Atom   1C    basis set group =>   1
Atom   2C    basis set group =>   1
Atom   3Br   basis set group =>   2
Atom   4H    basis set group =>   3
Atom   5H    basis set group =>   3
Atom   6H    basis set group =>   3
Atom   7H    basis set group =>   3
Atom   8H    basis set group =>   3
Atom   9H    basis set group =>   3
Atom  10H    basis set group =>   3
Atom  11Cl   basis set group =>   4
---------------------------------
AUXILIARY/J BASIS SET INFORMATION
---------------------------------
There are 4 groups of distinct atoms

 Group   1 Type C   : 12s5p4d2f1g contracted to 6s4p3d1f1g pattern {711111/2111/211/2/1}
 Group   2 Type Br  : 19s5p5d3f1g contracted to 8s4p3d2f1g pattern {121111111/2111/311/21/1}
 Group   3 Type H   : 5s2p1d contracted to 3s1p1d pattern {311/2/1}
 Group   4 Type Cl  : 14s5p5d2f1g contracted to 8s4p3d1f1g pattern {71111111/2111/311/2/1}

Atom   0C    basis set group =>   1
Atom   1C    basis set group =>   1
Atom   2C    basis set group =>   1
Atom   3Br   basis set group =>   2
Atom   4H    basis set group =>   3
Atom   5H    basis set group =>   3
Atom   6H    basis set group =>   3
Atom   7H    basis set group =>   3
Atom   8H    basis set group =>   3
Atom   9H    basis set group =>   3
Atom  10H    basis set group =>   3
Atom  11Cl   basis set group =>   4
[1631714988.935460] [comp0805:220828:0]            sys.c:618  UCX  ERROR shmget(size=2097152 flags=0xfb0) for mm_recv_desc failed: Operation not permitted, please check shared memory limits by 'ipcs -l'
[1631714988.935805] [comp0805:220827:0]            sys.c:618  UCX  ERROR shmget(size=2097152 flags=0xfb0) for mm_recv_desc failed: Operation not permitted, please check shared memory limits by 'ipcs -l'
[1631714988.936040] [comp0805:220826:0]            sys.c:618  UCX  ERROR shmget(size=2097152 flags=0xfb0) for mm_recv_desc failed: Operation not permitted, please check shared memory limits by 'ipcs -l'
[1631714988.936217] [comp0805:220829:0]            sys.c:618  UCX  ERROR shmget(size=2097152 flags=0xfb0) for mm_recv_desc failed: Operation not permitted, please check shared memory limits by 'ipcs -l'
[1631714988.996419] [comp0805:220826:0]            sys.c:618  UCX  ERROR shmget(size=2097152 flags=0xb80) for ucp_am_bufs failed: Operation not permitted, please check shared memory limits by 'ipcs -l'
[1631714989.116590] [comp0805:220827:0]            sys.c:618  UCX  ERROR shmget(size=2097152 flags=0xb80) for ucp_am_bufs failed: Operation not permitted, please check shared memory limits by 'ipcs -l'
[1631714989.116732] [comp0805:220829:0]            sys.c:618  UCX  ERROR shmget(size=2097152 flags=0xb80) for ucp_am_bufs failed: Operation not permitted, please check shared memory limits by 'ipcs -l'
[1631714989.117377] [comp0805:220828:0]            sys.c:618  UCX  ERROR shmget(size=2097152 flags=0xb80) for ucp_am_bufs failed: Operation not permitted, please check shared memory limits by 'ipcs -l'


           ************************************************************
           *        Program running with 4 parallel MPI-processes     *
           *              working on a common directory               *
           ************************************************************
------------------------------------------------------------------------------
                           ORCA GTO INTEGRAL CALCULATION
                           -- RI-GTO INTEGRALS CHOSEN --
------------------------------------------------------------------------------

                         BASIS SET STATISTICS AND STARTUP INFO

Gaussian basis set:
 # of primitive gaussian shells          ...  119
 # of primitive gaussian functions       ...  231
 # of contracted shells                  ...   59
 # of contracted basis functions         ...  127
 Highest angular momentum                ...    2
 Maximum contraction depth               ...    6
Auxiliary gaussian basis set:
 # of primitive gaussian shells          ...  188
 # of primitive gaussian functions       ...  488
 # of contracted shells                  ...  115
 # of contracted aux-basis functions     ...  333
 Highest angular momentum                ...    4
 Maximum contraction depth               ...   12
Ratio of auxiliary to basis functions    ...  2.62
Integral package used                  ... LIBINT
 One Electron integrals                  ... done
 Ordering auxiliary basis shells         ... done
 Integral threshhold             Thresh  ...  2.500e-11
 Primitive cut-off               TCut    ...  2.500e-12
 Pre-screening matrix                    ... done
 Shell pair data                         ... 
 Ordering of the shell pairs             ... done (   0.000 sec) 1611 of 1770 pairs
 Determination of significant pairs      ... done (   0.000 sec)
 Creation of shell pair data             ... done (   0.000 sec)
 Storage of shell pair data              ... done (   0.001 sec)
 Shell pair data done in (   0.002 sec)
 Computing two index integrals           ... done
 Cholesky decomposition of the V-matrix  ... done


Timings:
 Total evaluation time                   ...   0.544 sec (  0.009 min)
 One electron matrix time                ...   0.137 sec (  0.002 min) = 25.2%
 Schwartz matrix evaluation time         ...   0.173 sec (  0.003 min) = 31.8%
 Two index repulsion integral time       ...   0.003 sec (  0.000 min) =  0.5%
 Cholesky decomposition of V             ...   0.188 sec (  0.003 min) = 34.5%
 Three index repulsion integral time     ...   0.000 sec (  0.000 min) =  0.0%

[1631714991.698049] [comp0805:220851:0]            sys.c:618  UCX  ERROR shmget(size=2097152 flags=0xfb0) for mm_recv_desc failed: Operation not permitted, please check shared memory limits by 'ipcs -l'
[1631714991.699662] [comp0805:220849:0]            sys.c:618  UCX  ERROR shmget(size=2097152 flags=0xfb0) for mm_recv_desc failed: Operation not permitted, please check shared memory limits by 'ipcs -l'
[1631714991.724464] [comp0805:220850:0]            sys.c:618  UCX  ERROR shmget(size=2097152 flags=0xfb0) for mm_recv_desc failed: Operation not permitted, please check shared memory limits by 'ipcs -l'
[1631714991.724638] [comp0805:220852:0]            sys.c:618  UCX  ERROR shmget(size=2097152 flags=0xfb0) for mm_recv_desc failed: Operation not permitted, please check shared memory limits by 'ipcs -l'
[1631714991.733250] [comp0805:220851:0]            sys.c:618  UCX  ERROR shmget(size=2097152 flags=0xb80) for ucp_am_bufs failed: Operation not permitted, please check shared memory limits by 'ipcs -l'
[1631714991.733234] [comp0805:220852:0]            sys.c:618  UCX  ERROR shmget(size=2097152 flags=0xb80) for ucp_am_bufs failed: Operation not permitted, please check shared memory limits by 'ipcs -l'
[1631714991.733857] [comp0805:220849:0]            sys.c:618  UCX  ERROR shmget(size=2097152 flags=0xb80) for ucp_am_bufs failed: Operation not permitted, please check shared memory limits by 'ipcs -l'


           ************************************************************
           *        Program running with 4 parallel MPI-processes     *
           *              working on a common directory               *
           ************************************************************
[1631714991.736222] [comp0805:220850:0]            sys.c:618  UCX  ERROR shmget(size=2097152 flags=0xb80) for ucp_am_bufs failed: Operation not permitted, please check shared memory limits by 'ipcs -l'
-------------------------------------------------------------------------------
                                 ORCA SCF
-------------------------------------------------------------------------------

------------
SCF SETTINGS
------------
Hamiltonian:
 Density Functional     Method          .... DFT(GTOs)
 Exchange Functional    Exchange        .... PBE
   PBE kappa parameter   XKappa         ....  0.804000
   PBE mue parameter    XMuePBE         ....  0.219520
 Correlation Functional Correlation     .... PBE
   PBE beta parameter  CBetaPBE         ....  0.066725
 LDA part of GGA corr.  LDAOpt          .... PW91-LDA
 Gradients option       PostSCFGGA      .... off
 Hybrid DFT is turned on
   Fraction HF Exchange ScalHFX         ....  0.250000
   Scaling of DF-GGA-X  ScalDFX         ....  0.750000
   Scaling of DF-GGA-C  ScalDFC         ....  1.000000
   Scaling of DF-LDA-C  ScalLDAC        ....  1.000000
   Perturbative correction              ....  0.000000
   Density functional embedding theory  .... OFF
   NL short-range parameter             ....  6.900000
 RI-approximation to the Coulomb term is turned on
   Number of auxiliary basis functions  .... 333
   RIJ-COSX (HFX calculated with COS-X)).... on


General Settings:
 Integral files         IntName         .... manual_reactants_336_opt
 Hartree-Fock type      HFTyp           .... RHF
 Total Charge           Charge          ....   -1
 Multiplicity           Mult            ....    1
 Number of Electrons    NEL             ....   78
 Basis Dimension        Dim             ....  127
 Nuclear Repulsion      ENuc            ....    359.5637954084 Eh

Convergence Acceleration:
 DIIS                   CNVDIIS         .... on
   Start iteration      DIISMaxIt       ....    12
   Startup error        DIISStart       ....  0.200000
   # of expansion vecs  DIISMaxEq       ....     5
   Bias factor          DIISBfac        ....   1.050
   Max. coefficient     DIISMaxC        ....  10.000
 Newton-Raphson         CNVNR           .... off
 SOSCF                  CNVSOSCF        .... on
   Start iteration      SOSCFMaxIt      ....   150
   Startup grad/error   SOSCFStart      ....  0.003300
 Level Shifting         CNVShift        .... on
   Level shift para.    LevelShift      ....    0.2500
   Turn off err/grad.   ShiftErr        ....    0.0010
 Zerner damping         CNVZerner       .... off
 Static damping         CNVDamp         .... on
   Fraction old density DampFac         ....    0.7000
   Max. Damping (<1)    DampMax         ....    0.9800
   Min. Damping (>=0)   DampMin         ....    0.0000
   Turn off err/grad.   DampErr         ....    0.1000
 Fernandez-Rico         CNVRico         .... off

SCF Procedure:
 Maximum # iterations   MaxIter         ....   250
 SCF integral mode      SCFMode         .... Direct
   Integral package                     .... LIBINT
 Reset frequency        DirectResetFreq ....    20
 Integral Threshold     Thresh          ....  2.500e-11 Eh
 Primitive CutOff       TCut            ....  2.500e-12 Eh

Convergence Tolerance:
 Convergence Check Mode ConvCheckMode   .... Total+1el-Energy
 Convergence forced     ConvForced      .... 0
 Energy Change          TolE            ....  1.000e-08 Eh
 1-El. energy change                    ....  1.000e-05 Eh
 Orbital Gradient       TolG            ....  1.000e-05
 Orbital Rotation angle TolX            ....  1.000e-05
 DIIS Error             TolErr          ....  5.000e-07


Diagonalization of the overlap matrix:
Smallest eigenvalue                        ... 2.333e-03
Time for diagonalization                   ...    0.166 sec
Threshold for overlap eigenvalues          ... 1.000e-08
Number of eigenvalues below threshold      ... 0
Time for construction of square roots      ...    0.002 sec
Total time needed                          ...    0.168 sec

-------------------
DFT GRID GENERATION
-------------------

General Integration Accuracy     IntAcc      ...  4.340
Radial Grid Type                 RadialGrid  ... Gauss-Chebyshev
Angular Grid (max. acc.)         AngularGrid ... Lebedev-110
Angular grid pruning method      GridPruning ... 3 (G Style)
Weight generation scheme         WeightScheme... Becke
Basis function cutoff            BFCut       ...    1.0000e-11
Integration weight cutoff        WCut        ...    1.0000e-14
Grids for H and He will be reduced by one unit

# of grid points (after initial pruning)     ...  15260 (   0.0 sec)
# of grid points (after weights+screening)   ...  14494 (   0.0 sec)
nearest neighbour list constructed           ...    0.0 sec
Grid point re-assignment to atoms done       ...    0.0 sec
Grid point division into batches done        ...    0.0 sec
Reduced shell lists constructed in    0.1 sec

Total number of grid points                  ...    14494
Total number of batches                      ...      232
Average number of points per batch           ...       62
Average number of grid points per atom       ...     1208
Average number of shells per batch           ...    43.64 (73.97%)
Average number of basis functions per batch  ...    92.36 (72.72%)
Average number of large shells per batch     ...    36.95 (84.66%)
Average number of large basis fcns per batch ...    76.47 (82.80%)
Maximum spatial batch extension              ...  18.89, 20.19, 18.24 au
Average spatial batch extension              ...   0.70,  0.72,  0.75 au

Time for grid setup =    0.088 sec

------------------------------
INITIAL GUESS: MODEL POTENTIAL
------------------------------
Loading Hartree-Fock densities                     ... done
Calculating cut-offs                               ... done
Setting up the integral package                    ... done
Initializing the effective Hamiltonian             ... done
Starting the Coulomb interaction                   ... done (   0.0 sec)
Reading the grid                                   ... done
Mapping shells                                     ... done
Starting the XC term evaluation                    ... done (   0.0 sec)
  promolecular density results
     # of electrons  =     76.993221337
     EX              =   -134.007749854
     EC              =     -3.170128800
     EX+EC           =   -137.177878655
Transforming the Hamiltonian                       ... done (   0.0 sec)
Diagonalizing the Hamiltonian                      ... done (   0.0 sec)
Back transforming the eigenvectors                 ... done (   0.0 sec)
Now organizing SCF variables                       ... done
                      ------------------
                      INITIAL GUESS DONE (   0.2 sec)
                      ------------------
--------------------
COSX GRID GENERATION
--------------------

General Integration Accuracy     IntAcc      ...  3.340
Radial Grid Type                 RadialGrid  ... Gauss-Chebyshev
Angular Grid (max. acc.)         AngularGrid ... Lebedev-50
Angular grid pruning method      GridPruning ... 3 (G Style)
Weight generation scheme         WeightScheme... Becke
Basis function cutoff            BFCut       ...    1.0000e-11
Integration weight cutoff        WCut        ...    1.0000e-14
Grids for H and He will be reduced by one unit

# of grid points (after initial pruning)     ...   5728 (   0.0 sec)
# of grid points (after weights+screening)   ...   5440 (   0.0 sec)
nearest neighbour list constructed           ...    0.0 sec
Grid point re-assignment to atoms done       ...    0.0 sec
Grid point division into batches done        ...    0.0 sec
Reduced shell lists constructed in    0.0 sec

Total number of grid points                  ...     5440
Total number of batches                      ...       92
Average number of points per batch           ...       59
Average number of grid points per atom       ...      453
Average number of shells per batch           ...    44.71 (75.78%)
Average number of basis functions per batch  ...    95.46 (75.16%)
Average number of large shells per batch     ...    38.58 (86.30%)
Average number of large basis fcns per batch ...    80.17 (83.98%)
Maximum spatial batch extension              ...  14.64, 17.24, 15.71 au
Average spatial batch extension              ...   1.00,  0.89,  0.99 au

Overlap Fitting                  UseSFitting ... on
Constructing numerical overlap ... done (      0.0 sec)
Inverting numerical overlap    ... done (      0.0 sec)
Obtaining analytic overlap     ... done (      0.0 sec)
Final contraction and storage  ... done (      0.0 sec)


General Integration Accuracy     IntAcc      ...  3.670
Radial Grid Type                 RadialGrid  ... Gauss-Chebyshev
Angular Grid (max. acc.)         AngularGrid ... Lebedev-50
Angular grid pruning method      GridPruning ... 3 (G Style)
Weight generation scheme         WeightScheme... Becke
Basis function cutoff            BFCut       ...    1.0000e-11
Integration weight cutoff        WCut        ...    1.0000e-14
Grids for H and He will be reduced by one unit

# of grid points (after initial pruning)     ...   7222 (   0.0 sec)
# of grid points (after weights+screening)   ...   6835 (   0.0 sec)
nearest neighbour list constructed           ...    0.0 sec
Grid point re-assignment to atoms done       ...    0.0 sec
Grid point division into batches done        ...    0.0 sec
Reduced shell lists constructed in    0.0 sec

Total number of grid points                  ...     6835
Total number of batches                      ...      114
Average number of points per batch           ...       59
Average number of grid points per atom       ...      570
Average number of shells per batch           ...    44.67 (75.71%)
Average number of basis functions per batch  ...    94.93 (74.75%)
Average number of large shells per batch     ...    38.20 (85.52%)
Average number of large basis fcns per batch ...    79.00 (83.22%)
Maximum spatial batch extension              ...  15.33, 21.22, 16.73 au
Average spatial batch extension              ...   0.88,  0.86,  0.89 au

Overlap Fitting                  UseSFitting ... on
Constructing numerical overlap ... done (      0.0 sec)
Inverting numerical overlap    ... done (      0.0 sec)
Obtaining analytic overlap     ... done (      0.0 sec)
Final contraction and storage  ... done (      0.0 sec)


General Integration Accuracy     IntAcc      ...  4.010
Radial Grid Type                 RadialGrid  ... Gauss-Chebyshev
Angular Grid (max. acc.)         AngularGrid ... Lebedev-110
Angular grid pruning method      GridPruning ... 3 (G Style)
Weight generation scheme         WeightScheme... Becke
Basis function cutoff            BFCut       ...    1.0000e-11
Integration weight cutoff        WCut        ...    1.0000e-14
Grids for H and He will be reduced by one unit

# of grid points (after initial pruning)     ...  13318 (   0.0 sec)
# of grid points (after weights+screening)   ...  12674 (   0.0 sec)
nearest neighbour list constructed           ...    0.0 sec
Grid point re-assignment to atoms done       ...    0.0 sec
Grid point division into batches done        ...    0.0 sec
Reduced shell lists constructed in    0.0 sec

Total number of grid points                  ...    12674
Total number of batches                      ...      203
Average number of points per batch           ...       62
Average number of grid points per atom       ...     1056
Average number of shells per batch           ...    43.88 (74.38%)
Average number of basis functions per batch  ...    93.31 (73.47%)
Average number of large shells per batch     ...    37.08 (84.49%)
Average number of large basis fcns per batch ...    76.88 (82.40%)
Maximum spatial batch extension              ...  20.75, 17.20, 17.16 au
Average spatial batch extension              ...   0.80,  0.75,  0.80 au

Overlap Fitting                  UseSFitting ... on
Constructing numerical overlap ... done (      0.0 sec)
Inverting numerical overlap    ... done (      0.0 sec)
Obtaining analytic overlap     ... done (      0.0 sec)
Final contraction and storage  ... done (      0.0 sec)

Time for X-Grid setup             =    0.152 sec

--------------------
CPCM SOLVATION MODEL
--------------------
CPCM parameters:
  Epsilon                                         ...      20.7000
  Refrac                                          ...       1.3590
  Rsolv                                           ...       1.3000
  Surface type                                    ...    GEPOL SES
  Epsilon function type                           ...         CPCM
Radii:
 Radius for C  used is    3.7795 Bohr (=   2.0000 Ang.)
 Radius for Br used is    4.0818 Bohr (=   2.1600 Ang.)
 Radius for H  used is    2.4566 Bohr (=   1.3000 Ang.)
 Radius for Cl used is    3.8739 Bohr (=   2.0500 Ang.)
Calculating surface                               ...        done! (  0.0s)
GEPOL surface points                              ...          493
GEPOL Volume                                      ...     974.0403
GEPOL Surface-area                                ...     577.4530
Calculating surface distance matrix               ...        done! (  0.0s)
Performing Cholesky decomposition & store         ...        done! (  0.0s)
Overall time for CPCM initialization              ...                 0.1s
--------------
SCF ITERATIONS
--------------
ITER       Energy         Delta-E        Max-DP      RMS-DP      [F,P]     Damp
               ***  Starting incremental Fock matrix formation  ***
  0  -3151.7655715458   0.000000000000 0.10785457  0.00260021  0.1630273 0.7000
  1  -3151.8310327549  -0.065461209118 0.07550410  0.00197145  0.0913665 0.7000
                               ***Turning on DIIS***
  2  -3151.8605026322  -0.029469877354 0.13570434  0.00380811  0.0488956 0.0000
  3  -3151.9033336049  -0.042830972693 0.04106988  0.00114725  0.0458136 0.0000
  4  -3151.9136101968  -0.010276591853 0.02005006  0.00040395  0.0109624 0.0000
                      *** Initiating the SOSCF procedure ***
                           *** Shutting down DIIS ***
                      *** Re-Reading the Fockian *** 
                      *** Removing any level shift *** 
ITER      Energy       Delta-E        Grad      Rot      Max-DP    RMS-DP
  5  -3151.91408305  -0.0004728513  0.000626  0.000626  0.001934  0.000088
               *** Restarting incremental Fock matrix formation ***
  6  -3151.91409976  -0.0000167087  0.000287  0.000546  0.001600  0.000064
  7  -3151.91410073  -0.0000009732  0.000248  0.000159  0.000777  0.000016
  8  -3151.91410246  -0.0000017331  0.000053  0.000047  0.000246  0.000005
  9  -3151.91410248  -0.0000000134  0.000043  0.000021  0.000107  0.000002
                  ***Gradient check signals convergence***
              ***Rediagonalizing the Fockian in SOSCF/NRSCF***

               *****************************************************
               *                     SUCCESS                       *
               *           SCF CONVERGED AFTER  10 CYCLES          *
               *****************************************************

Setting up the final grid:

General Integration Accuracy     IntAcc      ...  4.670
Radial Grid Type                 RadialGrid  ... Gauss-Chebyshev
Angular Grid (max. acc.)         AngularGrid ... Lebedev-302
Angular grid pruning method      GridPruning ... 3 (G Style)
Weight generation scheme         WeightScheme... Becke
Basis function cutoff            BFCut       ...    1.0000e-11
Integration weight cutoff        WCut        ...    1.0000e-14
Grids for H and He will be reduced by one unit

# of grid points (after initial pruning)     ...  58748 (   0.0 sec)
# of grid points (after weights+screening)   ...  55088 (   0.0 sec)
nearest neighbour list constructed           ...    0.0 sec
Grid point re-assignment to atoms done       ...    0.0 sec
Grid point division into batches done        ...    0.2 sec
Reduced shell lists constructed in    0.3 sec

Total number of grid points                  ...    55088
Total number of batches                      ...      866
Average number of points per batch           ...       63
Average number of grid points per atom       ...     4591
Average number of shells per batch           ...    41.12 (69.69%)
Average number of basis functions per batch  ...    86.42 (68.05%)
Average number of large shells per batch     ...    34.51 (83.94%)
Average number of large basis fcns per batch ...    71.29 (82.49%)
Maximum spatial batch extension              ...  15.86, 17.07, 14.58 au
Average spatial batch extension              ...   0.53,  0.54,  0.52 au

Final grid set up in    0.3 sec
Final integration                            ... done (   0.1 sec)
Change in XC energy                          ...    -0.000515140
Integrated number of electrons               ...    78.000071619
Previous integrated no of electrons          ...    77.996151499
Old exchange energy                            =    -33.857411148 Eh
New exchange energy                            =    -33.857068974 Eh
Exchange energy change after final integration =      0.000342173 Eh
Total energy after final integration           =  -3151.914275469 Eh
Final COS-X integration done in                =     0.642 sec

----------------
TOTAL SCF ENERGY
----------------

Total Energy       :        -3151.91427547 Eh          -85767.94779 eV

Components:
Nuclear Repulsion  :          359.56379541 Eh            9784.22829 eV
Electronic Energy  :        -3511.47807088 Eh          -95552.17609 eV
One Electron Energy:        -5106.70637163 Eh         -138960.54499 eV
Two Electron Energy:         1595.22830075 Eh           43408.36890 eV
CPCM Dielectric    :           -0.10393482 Eh              -2.82821 eV

Virial components:
Potential Energy   :        -6299.09737236 Eh         -171407.15367 eV
Kinetic Energy     :         3147.18309689 Eh           85639.20588 eV
Virial Ratio       :            2.00150331


DFT components:
N(Alpha)           :       39.000035809388 electrons
N(Beta)            :       39.000035809388 electrons
N(Total)           :       78.000071618777 electrons
E(X)               :     -101.082725486333 Eh       
E(C)               :       -3.223111331077 Eh       
E(XC)              :     -104.305836817409 Eh       
DFET-embed. en.    :        0.000000000000 Eh       
CPCM Solvation Model Properties:
Surface-charge          :            0.97923912
Charge-correction       :           -0.00297460 Eh              -0.08094 eV
Free-energy (cav+disp)  :            0.00384815 Eh               0.10471 eV
Corrected G(solv)       :        -3151.91340192 Eh          -85767.92402 eV

---------------
SCF CONVERGENCE
---------------

  Last Energy change         ...   -2.5896e-08  Tolerance :   1.0000e-08
  Last MAX-Density change    ...    3.9968e-15  Tolerance :   1.0000e-07
  Last RMS-Density change    ...    1.0332e-16  Tolerance :   5.0000e-09
  Last Orbital Gradient      ...    1.0192e-06  Tolerance :   1.0000e-05
  Last Orbital Rotation      ...    1.4062e-06  Tolerance :   1.0000e-05

             **** THE GBW FILE WAS UPDATED (manual_reactants_336_opt.gbw) ****
             **** DENSITY FILE WAS UPDATED (manual_reactants_336_opt.scfp) ****
             **** ENERGY FILE WAS UPDATED (manual_reactants_336_opt.en.tmp) ****
             **** THE GBW FILE WAS UPDATED (manual_reactants_336_opt.gbw) ****
             **** DENSITY FILE WAS UPDATED (manual_reactants_336_opt.scfp) ****
----------------
ORBITAL ENERGIES
----------------

  NO   OCC          E(Eh)            E(eV) 
   0   2.0000    -483.169120    -13147.7002 
   1   2.0000    -101.519847     -2762.4955 
   2   2.0000     -62.605538     -1703.5833 
   3   2.0000     -56.394664     -1534.5768 
   4   2.0000     -56.392487     -1534.5176 
   5   2.0000     -56.392374     -1534.5145 
   6   2.0000     -10.263338      -279.2796 
   7   2.0000     -10.226030      -278.2644 
   8   2.0000     -10.211736      -277.8755 
   9   2.0000      -9.366956      -254.8878 
  10   2.0000      -8.750873      -238.1234 
  11   2.0000      -7.102851      -193.2784 
  12   2.0000      -7.102653      -193.2730 
  13   2.0000      -7.102425      -193.2668 
  14   2.0000      -6.564945      -178.6412 
  15   2.0000      -6.553176      -178.3210 
  16   2.0000      -6.553058      -178.3178 
  17   2.0000      -2.650606       -72.1267 
  18   2.0000      -2.647218       -72.0345 
  19   2.0000      -2.647163       -72.0330 
  20   2.0000      -2.637657       -71.7743 
  21   2.0000      -2.637646       -71.7740 
  22   2.0000      -0.827546       -22.5187 
  23   2.0000      -0.762587       -20.7510 
  24   2.0000      -0.669456       -18.2168 
  25   2.0000      -0.660357       -17.9692 
  26   2.0000      -0.586836       -15.9686 
  27   2.0000      -0.475832       -12.9480 
  28   2.0000      -0.435657       -11.8548 
  29   2.0000      -0.414253       -11.2724 
  30   2.0000      -0.397793       -10.8245 
  31   2.0000      -0.353110        -9.6086 
  32   2.0000      -0.344639        -9.3781 
  33   2.0000      -0.333637        -9.0787 
  34   2.0000      -0.280302        -7.6274 
  35   2.0000      -0.279298        -7.6001 
  36   2.0000      -0.212157        -5.7731 
  37   2.0000      -0.211274        -5.7491 
  38   2.0000      -0.208721        -5.6796 
  39   0.0000       0.026157         0.7118 
  40   0.0000       0.098577         2.6824 
  41   0.0000       0.123084         3.3493 
  42   0.0000       0.136593         3.7169 
  43   0.0000       0.150586         4.0977 
  44   0.0000       0.172129         4.6839 
  45   0.0000       0.189048         5.1443 
  46   0.0000       0.197999         5.3878 
  47   0.0000       0.227958         6.2031 
  48   0.0000       0.253750         6.9049 
  49   0.0000       0.361746         9.8436 
  50   0.0000       0.421524        11.4702 
  51   0.0000       0.427402        11.6302 
  52   0.0000       0.433796        11.8042 
  53   0.0000       0.450126        12.2485 
  54   0.0000       0.466666        12.6986 
  55   0.0000       0.534082        14.5331 
  56   0.0000       0.537646        14.6301 
  57   0.0000       0.580047        15.7839 
  58   0.0000       0.589971        16.0539 
  59   0.0000       0.594903        16.1881 
  60   0.0000       0.611890        16.6504 
  61   0.0000       0.635782        17.3005 
  62   0.0000       0.642192        17.4749 
  63   0.0000       0.659071        17.9342 
  64   0.0000       0.681118        18.5342 
  65   0.0000       0.704944        19.1825 
  66   0.0000       0.711475        19.3602 
  67   0.0000       0.714072        19.4309 
  68   0.0000       0.721394        19.6301 
  69   0.0000       0.729503        19.8508 
  70   0.0000       0.736647        20.0452 
  71   0.0000       0.784035        21.3347 
  72   0.0000       0.809449        22.0262 
  73   0.0000       0.838437        22.8150 
  74   0.0000       0.893288        24.3076 
  75   0.0000       0.924024        25.1440 
  76   0.0000       0.924446        25.1554 
  77   0.0000       0.924880        25.1673 
  78   0.0000       0.939035        25.5524 
  79   0.0000       0.952929        25.9305 
  80   0.0000       0.995637        27.0927 
  81   0.0000       1.014530        27.6068 
  82   0.0000       1.035658        28.1817 
  83   0.0000       1.077920        29.3317 
  84   0.0000       1.097161        29.8553 
  85   0.0000       1.188255        32.3341 
  86   0.0000       1.200581        32.6695 
  87   0.0000       1.260089        34.2888 
  88   0.0000       1.375205        37.4212 
  89   0.0000       1.386420        37.7264 
  90   0.0000       1.423074        38.7238 
  91   0.0000       1.559433        42.4343 
  92   0.0000       1.685362        45.8610 
  93   0.0000       1.750181        47.6249 
  94   0.0000       1.762801        47.9683 
  95   0.0000       1.792948        48.7886 
  96   0.0000       1.797007        48.8990 
  97   0.0000       1.813533        49.3488 
  98   0.0000       1.843494        50.1640 
  99   0.0000       1.856979        50.5310 
 100   0.0000       1.881624        51.2016 
 101   0.0000       1.906559        51.8801 
 102   0.0000       1.936519        52.6954 
 103   0.0000       1.973835        53.7108 
 104   0.0000       1.990419        54.1620 
 105   0.0000       2.100994        57.1710 
 106   0.0000       2.165852        58.9358 
 107   0.0000       2.241993        61.0077 
 108   0.0000       2.340476        63.6876 
 109   0.0000       2.398924        65.2780 
 110   0.0000       2.418972        65.8236 
 111   0.0000       2.453914        66.7744 
 112   0.0000       2.560855        69.6844 
 113   0.0000       2.595814        70.6357 
 114   0.0000       2.613844        71.1263 
 115   0.0000       2.781625        75.6919 
 116   0.0000       2.852072        77.6088 
 117   0.0000       2.912233        79.2459 
 118   0.0000       2.946189        80.1699 
 119   0.0000       3.025882        82.3384 
 120   0.0000       3.057046        83.1864 
 121   0.0000       3.092595        84.1538 
 122   0.0000       3.479976        94.6950 
 123   0.0000       3.500072        95.2418 
 124   0.0000       3.594706        97.8169 
 125   0.0000       3.605920        98.1221 
 126   0.0000       3.841365       104.5289 

                    ********************************
                    * MULLIKEN POPULATION ANALYSIS *
                    ********************************

-----------------------
MULLIKEN ATOMIC CHARGES
-----------------------
   0 C :   -0.088115
   1 C :   -0.083743
   2 C :   -0.115530
   3 Br:   -0.220180
   4 H :    0.045857
   5 H :    0.017905
   6 H :    0.041361
   7 H :    0.048250
   8 H :    0.049781
   9 H :    0.060007
  10 H :    0.095308
  11 Cl:   -0.850901
Sum of atomic charges:   -1.0000000

--------------------------------
MULLIKEN REDUCED ORBITAL CHARGES
--------------------------------
  0 C s       :     3.043624  s :     3.043624
      pz      :     0.999496  p :     3.017204
      px      :     0.985735
      py      :     1.031972
      dz2     :     0.005102  d :     0.027287
      dxz     :     0.006174
      dyz     :     0.006140
      dx2y2   :     0.006597
      dxy     :     0.003275
  1 C s       :     3.068695  s :     3.068695
      pz      :     1.027731  p :     2.978057
      px      :     0.920685
      py      :     1.029642
      dz2     :     0.006490  d :     0.036991
      dxz     :     0.008399
      dyz     :     0.007670
      dx2y2   :     0.009335
      dxy     :     0.005097
  2 C s       :     3.162920  s :     3.162920
      pz      :     0.936780  p :     2.917191
      px      :     0.895016
      py      :     1.085394
      dz2     :     0.005608  d :     0.035418
      dxz     :     0.009945
      dyz     :     0.005296
      dx2y2   :     0.009442
      dxy     :     0.005127
  3 Brs       :     7.968795  s :     7.968795
      pz      :     5.593262  p :    17.208830
      px      :     5.649994
      py      :     5.965574
      dz2     :     2.008916  d :    10.042555
      dxz     :     2.017234
      dyz     :     2.006021
      dx2y2   :     2.005938
      dxy     :     2.004445
  4 H s       :     0.930360  s :     0.930360
      pz      :     0.005248  p :     0.023784
      px      :     0.012275
      py      :     0.006260
  5 H s       :     0.957060  s :     0.957060
      pz      :     0.010976  p :     0.025034
      px      :     0.006164
      py      :     0.007895
  6 H s       :     0.934827  s :     0.934827
      pz      :     0.005410  p :     0.023813
      px      :     0.004870
      py      :     0.013532
  7 H s       :     0.929165  s :     0.929165
      pz      :     0.005369  p :     0.022585
      px      :     0.003728
      py      :     0.013488
  8 H s       :     0.927845  s :     0.927845
      pz      :     0.010054  p :     0.022374
      px      :     0.004343
      py      :     0.007978
  9 H s       :     0.914184  s :     0.914184
      pz      :     0.013442  p :     0.025808
      px      :     0.003916
      py      :     0.008451
 10 H s       :     0.882013  s :     0.882013
      pz      :     0.004296  p :     0.022680
      px      :     0.003403
      py      :     0.014981
 11 Cls       :     5.990636  s :     5.990636
      pz      :     3.923804  p :    11.859968
      px      :     3.955526
      py      :     3.980638
      dz2     :     0.000108  d :     0.000297
      dxz     :     0.000032
      dyz     :     0.000128
      dx2y2   :     0.000020
      dxy     :     0.000010


                     *******************************
                     * LOEWDIN POPULATION ANALYSIS *
                     *******************************

----------------------
LOEWDIN ATOMIC CHARGES
----------------------
   0 C :   -0.077829
   1 C :   -0.070715
   2 C :   -0.087981
   3 Br:   -0.050218
   4 H :    0.031231
   5 H :    0.010854
   6 H :    0.027735
   7 H :    0.029204
   8 H :    0.027415
   9 H :   -0.000559
  10 H :    0.034744
  11 Cl:   -0.873881

-------------------------------
LOEWDIN REDUCED ORBITAL CHARGES
-------------------------------
  0 C s       :     2.845855  s :     2.845855
      pz      :     1.050028  p :     3.161937
      px      :     1.037746
      py      :     1.074163
      dz2     :     0.012376  d :     0.070038
      dxz     :     0.017516
      dyz     :     0.014872
      dx2y2   :     0.017379
      dxy     :     0.007895
  1 C s       :     2.845905  s :     2.845905
      pz      :     1.050535  p :     3.133393
      px      :     1.015696
      py      :     1.067161
      dz2     :     0.014951  d :     0.091417
      dxz     :     0.021923
      dyz     :     0.018646
      dx2y2   :     0.024730
      dxy     :     0.011167
  2 C s       :     2.919568  s :     2.919568
      pz      :     0.991724  p :     3.085766
      px      :     0.986015
      py      :     1.108027
      dz2     :     0.013214  d :     0.082647
      dxz     :     0.022156
      dyz     :     0.012897
      dx2y2   :     0.023710
      dxy     :     0.010670
  3 Brs       :     7.826387  s :     7.826387
      pz      :     5.587696  p :    17.169737
      px      :     5.635437
      py      :     5.946605
      dz2     :     2.011217  d :    10.054094
      dxz     :     2.023165
      dyz     :     2.006847
      dx2y2   :     2.007769
      dxy     :     2.005095
  4 H s       :     0.902551  s :     0.902551
      pz      :     0.015271  p :     0.066218
      px      :     0.034689
      py      :     0.016258
  5 H s       :     0.918200  s :     0.918200
      pz      :     0.032769  p :     0.070946
      px      :     0.016822
      py      :     0.021355
  6 H s       :     0.906196  s :     0.906196
      pz      :     0.015618  p :     0.066068
      px      :     0.013039
      py      :     0.037411
  7 H s       :     0.904501  s :     0.904501
      pz      :     0.016006  p :     0.066295
      px      :     0.012203
      py      :     0.038086
  8 H s       :     0.906232  s :     0.906232
      pz      :     0.029812  p :     0.066354
      px      :     0.014813
      py      :     0.021728
  9 H s       :     0.916114  s :     0.916114
      pz      :     0.044680  p :     0.084445
      px      :     0.014177
      py      :     0.025589
 10 H s       :     0.894237  s :     0.894237
      pz      :     0.014619  p :     0.071019
      px      :     0.012256
      py      :     0.044143
 11 Cls       :     5.987121  s :     5.987121
      pz      :     3.936045  p :    11.886424
      px      :     3.967900
      py      :     3.982479
      dz2     :     0.000120  d :     0.000335
      dxz     :     0.000039
      dyz     :     0.000140
      dx2y2   :     0.000025
      dxy     :     0.000012


                      *****************************
                      * MAYER POPULATION ANALYSIS *
                      *****************************

  NA   - Mulliken gross atomic population
  ZA   - Total nuclear charge
  QA   - Mulliken gross atomic charge
  VA   - Mayer's total valence
  BVA  - Mayer's bonded valence
  FA   - Mayer's free valence

  ATOM       NA         ZA         QA         VA         BVA        FA
  0 C      6.0881     6.0000    -0.0881     3.9674     3.9674     0.0000
  1 C      6.0837     6.0000    -0.0837     4.0250     4.0250    -0.0000
  2 C      6.1155     6.0000    -0.1155     3.8243     3.8243    -0.0000
  3 Br    35.2202    35.0000    -0.2202     1.0043     1.0043     0.0000
  4 H      0.9541     1.0000     0.0459     0.9809     0.9809     0.0000
  5 H      0.9821     1.0000     0.0179     1.0761     1.0761     0.0000
  6 H      0.9586     1.0000     0.0414     0.9835     0.9835    -0.0000
  7 H      0.9517     1.0000     0.0483     0.9791     0.9791     0.0000
  8 H      0.9502     1.0000     0.0498     0.9755     0.9755     0.0000
  9 H      0.9400     1.0000     0.0600     1.1143     1.1143    -0.0000
 10 H      0.9047     1.0000     0.0953     0.9685     0.9685    -0.0000
 11 Cl    17.8509    17.0000    -0.8509     0.2883     0.2883     0.0000

  Mayer bond orders larger than 0.100000
B(  0-C ,  1-C ) :   1.0892 B(  0-C ,  4-H ) :   0.9667 B(  0-C ,  5-H ) :   0.9476 
B(  0-C ,  6-H ) :   0.9713 B(  1-C ,  2-C ) :   1.0401 B(  1-C ,  7-H ) :   0.9484 
B(  1-C ,  8-H ) :   0.9527 B(  2-C ,  3-Br) :   0.9674 B(  2-C ,  9-H ) :   0.8978 
B(  2-C , 10-H ) :   0.9484 B(  5-H , 11-Cl) :   0.1165 B(  9-H , 11-Cl) :   0.2006 



------------------
HIRSHFELD ANALYSIS
------------------

Total integrated alpha density =     38.998075749
Total integrated beta density  =     38.998075749

  ATOM     CHARGE      SPIN    
   0 C   -0.075767    0.000000
   1 C   -0.040299    0.000000
   2 C   -0.000095    0.000000
   3 Br  -0.175552    0.000000
   4 H    0.027510    0.000000
   5 H    0.009685    0.000000
   6 H    0.024814    0.000000
   7 H    0.024225    0.000000
   8 H    0.022856    0.000000
   9 H    0.008641    0.000000
  10 H    0.039860    0.000000
  11 Cl  -0.862030    0.000000

  TOTAL  -0.996151    0.000000

-------
TIMINGS
-------

Total SCF time: 0 days 0 hours 0 min 8 sec 

Total time                  ....       8.867 sec
Sum of individual times     ....       8.458 sec  ( 95.4%)

Fock matrix formation       ....       7.673 sec  ( 86.5%)
  Split-RI-J                ....       1.267 sec  ( 16.5% of F)
  Chain of spheres X        ....       3.810 sec  ( 49.7% of F)
  COS-X 1 center corr.      ....       0.000 sec  (  0.0% of F)
  XC integration            ....       0.446 sec  (  5.8% of F)
    Basis function eval.    ....       0.175 sec  ( 39.2% of XC)
    Density eval.           ....       0.074 sec  ( 16.6% of XC)
    XC-Functional eval.     ....       0.043 sec  (  9.7% of XC)
    XC-Potential eval.      ....       0.114 sec  ( 25.6% of XC)
Diagonalization             ....       0.012 sec  (  0.1%)
Density matrix formation    ....       0.002 sec  (  0.0%)
Population analysis         ....       0.032 sec  (  0.4%)
Initial guess               ....       0.148 sec  (  1.7%)
Orbital Transformation      ....       0.000 sec  (  0.0%)
Orbital Orthonormalization  ....       0.000 sec  (  0.0%)
DIIS solution               ....       0.004 sec  (  0.0%)
SOSCF solution              ....       0.006 sec  (  0.1%)
Grid generation             ....       0.581 sec  (  6.6%)


-------------------------------------------------------------------------------
                          DFT DISPERSION CORRECTION                            
                                                                               
                              DFTD3 V3.1  Rev 1                                
                          USING Becke-Johnson damping                          
-------------------------------------------------------------------------------
The PBE0 functional is recognized
Active option DFTDOPT                   ...         4   

molecular C6(AA) [au] = 2272.698052 


            DFT-D V3
 parameters
 s6 scaling factor         :     1.0000 
 a1 scaling factor         :     0.4145 
 s8 scaling factor         :     1.2177 
 a2 scaling factor         :     4.8593 
 ad hoc parameters k1-k3   :    16.0000     1.3333    -4.0000 

 Edisp/kcal,au: -5.398195030483  -0.008602570444 
 E6   /kcal   :  -3.324213756 
 E8   /kcal   :  -2.073981274 
 % E8         :  38.419902623 

-------------------------   ----------------
Dispersion correction           -0.008602570
-------------------------   ----------------


-------------------------   --------------------
FINAL SINGLE POINT ENERGY     -3151.922878039881
-------------------------   --------------------

[1631715002.860621] [comp0805:220874:0]            sys.c:618  UCX  ERROR shmget(size=2097152 flags=0xfb0) for mm_recv_desc failed: Operation not permitted, please check shared memory limits by 'ipcs -l'
[1631715002.860748] [comp0805:220876:0]            sys.c:618  UCX  ERROR shmget(size=2097152 flags=0xfb0) for mm_recv_desc failed: Operation not permitted, please check shared memory limits by 'ipcs -l'
[1631715002.880967] [comp0805:220875:0]            sys.c:618  UCX  ERROR shmget(size=2097152 flags=0xfb0) for mm_recv_desc failed: Operation not permitted, please check shared memory limits by 'ipcs -l'
[1631715002.881125] [comp0805:220877:0]            sys.c:618  UCX  ERROR shmget(size=2097152 flags=0xfb0) for mm_recv_desc failed: Operation not permitted, please check shared memory limits by 'ipcs -l'
[1631715002.889414] [comp0805:220874:0]            sys.c:618  UCX  ERROR shmget(size=2097152 flags=0xb80) for ucp_am_bufs failed: Operation not permitted, please check shared memory limits by 'ipcs -l'
[1631715002.890173] [comp0805:220875:0]            sys.c:618  UCX  ERROR shmget(size=2097152 flags=0xb80) for ucp_am_bufs failed: Operation not permitted, please check shared memory limits by 'ipcs -l'
[1631715002.891008] [comp0805:220876:0]            sys.c:618  UCX  ERROR shmget(size=2097152 flags=0xb80) for ucp_am_bufs failed: Operation not permitted, please check shared memory limits by 'ipcs -l'


           ************************************************************
           *        Program running with 4 parallel MPI-processes     *
           *              working on a common directory               *
           ************************************************************
------------------------------------------------------------------------------
                         ORCA SCF GRADIENT CALCULATION
------------------------------------------------------------------------------

Gradient of the Kohn-Sham DFT energy:
Kohn-Sham wavefunction type      ... RKS
Hartree-Fock exchange scaling    ...    0.250
Number of operators              ...    1
Number of atoms                  ...   12
Basis set dimensions             ...  127
Integral neglect threshold       ... 2.5e-11
Integral primitive cutoff        ... 2.5e-12

Nuclear repulsion gradient       ... done
One Electron Gradient            ... done
Pre-screening matrix             ... done
RI-J gradient                    ... [1631715003.638967] [comp0805:220877:0]            sys.c:618  UCX  ERROR shmget(size=2097152 flags=0xb80) for ucp_am_bufs failed: Operation not permitted, please check shared memory limits by 'ipcs -l'
done
COSX-gradient                    ... done
Exchange-correlation gradient    ... done
Dispersion correction            ... done

------------------
CARTESIAN GRADIENT
------------------

   1   C   :   -0.000124280    0.000269085   -0.000326619
   2   C   :   -0.000116532    0.000145302    0.000052610
   3   C   :    0.000174765    0.000286853   -0.000772664
   4   Br  :   -0.000130891    0.000181142    0.000091969
   5   H   :    0.000143840   -0.000026706    0.000124226
   6   H   :   -0.000394844    0.000060889   -0.000236252
   7   H   :    0.000078015   -0.000025343    0.000065361
   8   H   :    0.000058192    0.000105423   -0.000086673
   9   H   :    0.000000856    0.000104390    0.000050620
  10   H   :    0.000280773    0.000123281   -0.000447779
  11   H   :   -0.000036347    0.000075740    0.000080345
  12   Cl  :    0.000589188   -0.000378301    0.000898605

Difference to translation invariance:
           :    0.0005227348    0.0009217549   -0.0005062509

Norm of the cartesian gradient     ...    0.0017043361
RMS gradient                       ...    0.0002840560
MAX gradient                       ...    0.0008986050

-------
TIMINGS
-------

Total SCF gradient time            ...        1.963 sec

One electron gradient       ....       0.017 sec  (  0.9%)
Prescreening matrices       ....       0.099 sec  (  5.0%)
RI-J Coulomb gradient       ....       0.169 sec  (  8.6%)
COSX gradient               ....       0.608 sec  ( 31.0%)
XC gradient                 ....       0.423 sec  ( 21.5%)
CPCM gradient               ....       0.225 sec  ( 11.5%)
   A-Matrix (El+Nuc)        ....       0.009 sec  (  0.5%)
   Potential                ....       0.216 sec  ( 11.0%)
------------------------------------------------------------------------------
                         ORCA GEOMETRY RELAXATION STEP
------------------------------------------------------------------------------

Reading the OPT-File                    .... done
Getting information on internals        .... done
Copying old internal coords+grads       .... done
Making the new internal coordinates     .... (new redundants).... done
Validating the new internal coordinates .... (new redundants).... done
Calculating the B-matrix                .... done
Calculating the G,G- and P matrices     .... done
Transforming gradient to internals      .... done
Projecting the internal gradient        .... done
Number of atoms                         ....  12
Number of internal coordinates          ....  59
Current Energy                          .... -3151.922878040 Eh
Current gradient norm                   ....     0.001704336 Eh/bohr
Maximum allowed component of the step   ....  0.300
Current trust radius                    ....  0.300
Evaluating the initial hessian          ....  (Almloef) done
Projecting the Hessian                  .... done
Forming the augmented Hessian           .... done
Diagonalizing the augmented Hessian     .... done
Last element of RFO vector              ....  0.978216343
Lowest eigenvalues of augmented Hessian:
 -0.000196225  0.004238145  0.014514740  0.017930767  0.046087610
Length of the computed step             ....  0.212210747
The final length of the internal step   ....  0.212210747
Converting the step to cartesian space:
 Initial RMS(Int)=    0.0276274860
Transforming coordinates:
 Iter   0:  RMS(Cart)=    0.0258625721 RMS(Int)=    0.0275878025
 Iter   1:  RMS(Cart)=    0.0001791105 RMS(Int)=    0.0001010496
 Iter   2:  RMS(Cart)=    0.0000021690 RMS(Int)=    0.0000014446
 Iter   3:  RMS(Cart)=    0.0000000244 RMS(Int)=    0.0000000240
done
Storing new coordinates                 .... done

                                .--------------------.
          ----------------------|Geometry convergence|-------------------------
          Item                value                   Tolerance       Converged
          ---------------------------------------------------------------------
          RMS gradient        0.0001484138            0.0001000000      NO
          MAX gradient        0.0007157920            0.0003000000      NO
          RMS step            0.0276274860            0.0020000000      NO
          MAX step            0.1532079461            0.0040000000      NO
          ........................................................
          Max(Bonds)      0.0811      Max(Angles)    1.13
          Max(Dihed)        0.43      Max(Improp)    0.00
          ---------------------------------------------------------------------

The optimization has not yet converged - more geometry cycles are needed


    ---------------------------------------------------------------------------
                         Redundant Internal Coordinates
                            (Angstroem and degrees)

        Definition                    Value    dE/dq     Step     New-Value
    ----------------------------------------------------------------------------
     1. B(C   1,C   0)                1.5223  0.000005 -0.0006    1.5216   
     2. B(C   2,C   1)                1.5118  0.000097 -0.0008    1.5110   
     3. B(Br  3,C   2)                1.9620 -0.000231  0.0005    1.9625   
     4. B(H   4,C   0)                1.1008 -0.000094  0.0001    1.1010   
     5. B(H   5,C   0)                1.1015  0.000167 -0.0001    1.1014   
     6. B(H   6,C   0)                1.1018 -0.000046  0.0001    1.1019   
     7. B(H   7,C   1)                1.1025  0.000002 -0.0000    1.1024   
     8. B(H   8,C   1)                1.1025 -0.000050  0.0001    1.1026   
     9. B(H   9,C   2)                1.1026  0.000421 -0.0008    1.1018   
    10. B(H  10,C   2)                1.0989 -0.000001  0.0000    1.0989   
    11. B(Cl 11,H   9)                2.5293  0.000716 -0.0758    2.4535   
    12. B(Cl 11,H   5)                2.9124  0.000608 -0.0811    2.8313   
    13. A(H   4,C   0,H   5)          109.14 -0.000087    0.11    109.26   
    14. A(C   1,C   0,H   5)          110.02  0.000083   -0.18    109.84   
    15. A(H   4,C   0,H   6)          107.95  0.000025    0.01    107.95   
    16. A(C   1,C   0,H   6)          111.59  0.000012    0.01    111.60   
    17. A(H   5,C   0,H   6)          107.58 -0.000077    0.01    107.59   
    18. A(C   1,C   0,H   4)          110.47  0.000038    0.05    110.51   
    19. A(H   7,C   1,H   8)          106.50  0.000025    0.05    106.55   
    20. A(C   2,C   1,H   8)          109.94 -0.000025    0.13    110.07   
    21. A(C   0,C   1,H   8)          110.84 -0.000054    0.14    110.98   
    22. A(C   0,C   1,C   2)          111.09  0.000126   -0.29    110.80   
    23. A(C   0,C   1,H   7)          109.59 -0.000005   -0.01    109.58   
    24. A(C   2,C   1,H   7)          108.75 -0.000072    0.00    108.75   
    25. A(Br  3,C   2,H   9)          106.31 -0.000046    0.10    106.42   
    26. A(C   1,C   2,H   9)          111.92  0.000039   -0.24    111.68   
    27. A(C   1,C   2,Br  3)          111.08  0.000078    0.05    111.13   
    28. A(H   9,C   2,H  10)          109.22 -0.000076    0.05    109.26   
    29. A(Br  3,C   2,H  10)          105.32  0.000033    0.01    105.34   
    30. A(C   1,C   2,H  10)          112.60 -0.000031    0.04    112.64   
    31. A(C   0,H   5,Cl 11)          146.42 -0.000013   -0.07    146.35   
    32. A(C   2,H   9,Cl 11)          159.65 -0.000174   -0.14    159.51   
    33. A(H   5,Cl 11,H   9)           53.71  0.000010    1.13     54.84   
    34. D(H   8,C   1,C   0,H   4)     62.74  0.000042    0.30     63.04   
    35. D(H   7,C   1,C   0,H   6)   -174.61 -0.000017    0.12   -174.49   
    36. D(H   7,C   1,C   0,H   4)    -54.52  0.000047    0.17    -54.35   
    37. D(H   8,C   1,C   0,H   5)   -176.69  0.000012    0.36   -176.33   
    38. D(H   7,C   1,C   0,H   5)     66.05  0.000017    0.22     66.27   
    39. D(C   2,C   1,C   0,H   6)     65.20 -0.000005    0.31     65.51   
    40. D(C   2,C   1,C   0,H   5)    -54.14  0.000030    0.41    -53.73   
    41. D(H   8,C   1,C   0,H   6)    -57.35 -0.000023    0.25    -57.10   
    42. D(C   2,C   1,C   0,H   4)   -174.71  0.000060    0.36   -174.35   
    43. D(H   9,C   2,C   1,H   7)    -65.16 -0.000060   -0.24    -65.40   
    44. D(H   9,C   2,C   1,C   0)     55.53 -0.000035   -0.43     55.10   
    45. D(Br  3,C   2,C   1,H   8)    -62.75 -0.000015   -0.36    -63.11   
    46. D(Br  3,C   2,C   1,H   7)     53.49 -0.000041   -0.23     53.26   
    47. D(H   9,C   2,C   1,H   8)    178.60 -0.000035   -0.37    178.23   
    48. D(Br  3,C   2,C   1,C   0)    174.19 -0.000015   -0.42    173.76   
    49. D(H  10,C   2,C   1,H   8)     55.11  0.000059   -0.28     54.83   
    50. D(H  10,C   2,C   1,H   7)    171.35  0.000034   -0.15    171.20   
    51. D(H  10,C   2,C   1,C   0)    -67.96  0.000059   -0.34    -68.30   
    52. D(Cl 11,H   5,C   0,H   6)    -86.27 -0.000010    0.04    -86.23   
    53. D(Cl 11,H   5,C   0,H   4)    156.85  0.000049   -0.04    156.81   
    54. D(Cl 11,H   5,C   0,C   1)     35.48  0.000005   -0.05     35.43   
    55. D(Cl 11,H   9,C   2,H  10)     81.04 -0.000033   -0.03     81.02   
    56. D(Cl 11,H   9,C   2,Br  3)   -165.78 -0.000053    0.07   -165.71   
    57. D(Cl 11,H   9,C   2,C   1)    -44.33  0.000036    0.06    -44.28   
    58. D(H   5,Cl 11,H   9,C   2)     17.26  0.000032    0.05     17.32   
    59. D(H   9,Cl 11,H   5,C   0)    -10.25 -0.000075   -0.05    -10.30   
    ----------------------------------------------------------------------------

         *************************************************************
         *                GEOMETRY OPTIMIZATION CYCLE   2            *
         *************************************************************
---------------------------------
CARTESIAN COORDINATES (ANGSTROEM)
---------------------------------
  C     -2.755678    0.292859    0.682159
  C     -1.758724    0.200294   -0.463608
  C     -0.376809    0.605260   -0.006199
  Br     0.952722    0.302488   -1.417566
  H     -3.737147   -0.097899    0.372116
  H     -2.389433   -0.287105    1.543954
  H     -2.894523    1.333755    1.015931
  H     -1.719086   -0.836609   -0.835965
  H     -2.074854    0.827280   -1.313687
  H     -0.047088    0.015293    0.864016
  H     -0.307265    1.675380    0.233896
  Cl    -0.132695   -1.115825    3.039523

----------------------------
CARTESIAN COORDINATES (A.U.)
----------------------------
  NO LB      ZA    FRAG     MASS         X           Y           Z
   0 C     6.0000    0    12.011   -5.207478    0.553424    1.289094
   1 C     6.0000    0    12.011   -3.323506    0.378501   -0.876092
   2 C     6.0000    0    12.011   -0.712065    1.143776   -0.011715
   3 Br   35.0000    0    79.900    1.800383    0.571619   -2.678811
   4 H     1.0000    0     1.008   -7.062185   -0.185003    0.703197
   5 H     1.0000    0     1.008   -4.515374   -0.542551    2.917651
   6 H     1.0000    0     1.008   -5.469855    2.520431    1.919831
   7 H     1.0000    0     1.008   -3.248602   -1.580962   -1.579745
   8 H     1.0000    0     1.008   -3.920907    1.563333   -2.482509
   9 H     1.0000    0     1.008   -0.088984    0.028900    1.632754
  10 H     1.0000    0     1.008   -0.580646    3.166009    0.442000
  11 Cl   17.0000    0    35.453   -0.250757   -2.108603    5.743866

--------------------------------
INTERNAL COORDINATES (ANGSTROEM)
--------------------------------
 C      0   0   0     0.000000000000     0.00000000     0.00000000
 C      1   0   0     1.521600642968     0.00000000     0.00000000
 C      2   1   0     1.510930061678   110.79293670     0.00000000
 Br     3   2   1     1.962467119587   111.13458451   173.75863262
 H      1   2   3     1.100954342749   110.51460683   185.65089397
 H      1   2   3     1.101447324372   109.83231095   306.27297215
 H      1   2   3     1.101882007216   111.59964583    65.50996065
 H      2   1   3     1.102446809027   109.57890749   120.00049457
 H      2   1   3     1.102581311886   110.98381951   237.39417069
 H      3   2   1     1.101839860686   111.67101759    55.09329523
 H      3   2   1     1.098925831511   112.64499809   291.69679835
 Cl    10   3   2     2.453484239710   159.50637865   315.72376858

---------------------------
INTERNAL COORDINATES (A.U.)
---------------------------
 C      0   0   0     0.000000000000     0.00000000     0.00000000
 C      1   0   0     2.875408500408     0.00000000     0.00000000
 C      2   1   0     2.855244024079   110.79293670     0.00000000
 Br     3   2   1     3.708525402845   111.13458451   173.75863262
 H      1   2   3     2.080502193747   110.51460683   185.65089397
 H      1   2   3     2.081433794004   109.83231095   306.27297215
 H      1   2   3     2.082255225533   111.59964583    65.50996065
 H      2   1   3     2.083322546277   109.57890749   120.00049457
 H      2   1   3     2.083576719844   110.98381951   237.39417069
 H      3   2   1     2.082175580135   111.67101759    55.09329523
 H      3   2   1     2.076668863047   112.64499809   291.69679835
 Cl    10   3   2     4.636413286944   159.50637865   315.72376858

[1631715005.936743] [comp0805:220907:0]            sys.c:618  UCX  ERROR shmget(size=2097152 flags=0xfb0) for mm_recv_desc failed: Operation not permitted, please check shared memory limits by 'ipcs -l'
[1631715005.938519] [comp0805:220909:0]            sys.c:618  UCX  ERROR shmget(size=2097152 flags=0xfb0) for mm_recv_desc failed: Operation not permitted, please check shared memory limits by 'ipcs -l'
[1631715005.957958] [comp0805:220908:0]            sys.c:618  UCX  ERROR shmget(size=2097152 flags=0xfb0) for mm_recv_desc failed: Operation not permitted, please check shared memory limits by 'ipcs -l'
[1631715005.968390] [comp0805:220910:0]            sys.c:618  UCX  ERROR shmget(size=2097152 flags=0xfb0) for mm_recv_desc failed: Operation not permitted, please check shared memory limits by 'ipcs -l'
[1631715005.976605] [comp0805:220909:0]            sys.c:618  UCX  ERROR shmget(size=2097152 flags=0xb80) for ucp_am_bufs failed: Operation not permitted, please check shared memory limits by 'ipcs -l'
[1631715005.976606] [comp0805:220907:0]            sys.c:618  UCX  ERROR shmget(size=2097152 flags=0xb80) for ucp_am_bufs failed: Operation not permitted, please check shared memory limits by 'ipcs -l'


           ************************************************************
           *        Program running with 4 parallel MPI-processes     *
           *              working on a common directory               *
           ************************************************************
[1631715005.978106] [comp0805:220908:0]            sys.c:618  UCX  ERROR shmget(size=2097152 flags=0xb80) for ucp_am_bufs failed: Operation not permitted, please check shared memory limits by 'ipcs -l'
[1631715005.978135] [comp0805:220910:0]            sys.c:618  UCX  ERROR shmget(size=2097152 flags=0xb80) for ucp_am_bufs failed: Operation not permitted, please check shared memory limits by 'ipcs -l'
 One Electron integrals                  ... done
 Pre-screening matrix                    ... done
[1631715007.110694] [comp0805:220930:0]            sys.c:618  UCX  ERROR shmget(size=2097152 flags=0xfb0) for mm_recv_desc failed: Operation not permitted, please check shared memory limits by 'ipcs -l'
[1631715007.110795] [comp0805:220932:0]            sys.c:618  UCX  ERROR shmget(size=2097152 flags=0xfb0) for mm_recv_desc failed: Operation not permitted, please check shared memory limits by 'ipcs -l'
[1631715007.122085] [comp0805:220931:0]            sys.c:618  UCX  ERROR shmget(size=2097152 flags=0xfb0) for mm_recv_desc failed: Operation not permitted, please check shared memory limits by 'ipcs -l'
[...]
  27   2.0000      -0.474951       -12.9241 
  28   2.0000      -0.434609       -11.8263 
  29   2.0000      -0.412553       -11.2261 
  30   2.0000      -0.396552       -10.7907 
  31   2.0000      -0.351994        -9.5783 
  32   2.0000      -0.343305        -9.3418 
  33   2.0000      -0.332747        -9.0545 
  34   2.0000      -0.279616        -7.6087 
  35   2.0000      -0.278838        -7.5876 
  36   2.0000      -0.213012        -5.7963 
  37   2.0000      -0.212116        -5.7720 
  38   2.0000      -0.208744        -5.6802 
  39   0.0000       0.026902         0.7320 
  40   0.0000       0.099640         2.7113 
  41   0.0000       0.123708         3.3663 
  42   0.0000       0.137283         3.7357 
  43   0.0000       0.152857         4.1594 
  44   0.0000       0.172994         4.7074 
  45   0.0000       0.192022         5.2252 
  46   0.0000       0.202676         5.5151 
  47   0.0000       0.228987         6.2311 
  48   0.0000       0.254781         6.9329 
  49   0.0000       0.362478         9.8635 
  50   0.0000       0.422743        11.5034 
  51   0.0000       0.427934        11.6447 
  52   0.0000       0.435467        11.8497 
  53   0.0000       0.451421        12.2838 
  54   0.0000       0.467836        12.7305 
  55   0.0000       0.534975        14.5574 
  56   0.0000       0.538289        14.6476 
  57   0.0000       0.580714        15.8020 
  58   0.0000       0.591350        16.0915 
  59   0.0000       0.601683        16.3726 
  60   0.0000       0.612338        16.6626 
  61   0.0000       0.636440        17.3184 
  62   0.0000       0.642669        17.4879 
  63   0.0000       0.659766        17.9531 
  64   0.0000       0.682855        18.5814 
  65   0.0000       0.706047        19.2125 
  66   0.0000       0.713050        19.4031 
  67   0.0000       0.715670        19.4744 
  68   0.0000       0.723942        19.6995 
  69   0.0000       0.730189        19.8695 
  70   0.0000       0.737812        20.0769 
  71   0.0000       0.784516        21.3478 
  72   0.0000       0.819738        22.3062 
  73   0.0000       0.839044        22.8316 
  74   0.0000       0.892996        24.2996 
  75   0.0000       0.923132        25.1197 
  76   0.0000       0.923590        25.1322 
  77   0.0000       0.924655        25.1611 
  78   0.0000       0.940752        25.5992 
  79   0.0000       0.953515        25.9465 
  80   0.0000       0.995427        27.0870 
  81   0.0000       1.015999        27.6468 
  82   0.0000       1.035986        28.1906 
  83   0.0000       1.078210        29.3396 
  84   0.0000       1.111008        30.2321 
  85   0.0000       1.190790        32.4031 
  86   0.0000       1.203010        32.7356 
  87   0.0000       1.260853        34.3096 
  88   0.0000       1.377207        37.4757 
  89   0.0000       1.388777        37.7905 
  90   0.0000       1.425995        38.8033 
  91   0.0000       1.560176        42.4545 
  92   0.0000       1.687944        45.9313 
  93   0.0000       1.751678        47.6656 
  94   0.0000       1.763971        48.0001 
  95   0.0000       1.795299        48.8526 
  96   0.0000       1.798439        48.9380 
  97   0.0000       1.814021        49.3620 
  98   0.0000       1.845256        50.2120 
  99   0.0000       1.858622        50.5757 
 100   0.0000       1.883989        51.2659 
 101   0.0000       1.907641        51.9096 
 102   0.0000       1.937363        52.7183 
 103   0.0000       1.977363        53.8068 
 104   0.0000       1.990492        54.1641 
 105   0.0000       2.102766        57.2192 
 106   0.0000       2.169131        59.0251 
 107   0.0000       2.241684        60.9993 
 108   0.0000       2.341012        63.7022 
 109   0.0000       2.400681        65.3258 
 110   0.0000       2.419057        65.8259 
 111   0.0000       2.454142        66.7806 
 112   0.0000       2.562517        69.7296 
 113   0.0000       2.597477        70.6809 
 114   0.0000       2.616252        71.1918 
 115   0.0000       2.783163        75.7337 
 116   0.0000       2.854946        77.6870 
 117   0.0000       2.912043        79.2407 
 118   0.0000       2.946099        80.1674 
 119   0.0000       3.027471        82.3817 
 120   0.0000       3.055974        83.1573 
 121   0.0000       3.093172        84.1695 
 122   0.0000       3.480843        94.7186 
 123   0.0000       3.500828        95.2624 
 124   0.0000       3.595393        97.8356 
 125   0.0000       3.606176        98.1290 
 126   0.0000       3.842490       104.5595 

                    ********************************
                    * MULLIKEN POPULATION ANALYSIS *
                    ********************************

-----------------------
MULLIKEN ATOMIC CHARGES
-----------------------
   0 C :   -0.089402
   1 C :   -0.080850
   2 C :   -0.117246
   3 Br:   -0.223701
   4 H :    0.044116
   5 H :    0.016064
   6 H :    0.039710
   7 H :    0.046613
   8 H :    0.048012
   9 H :    0.059712
  10 H :    0.094384
  11 Cl:   -0.837412
Sum of atomic charges:   -1.0000000

--------------------------------
MULLIKEN REDUCED ORBITAL CHARGES
--------------------------------
  0 C s       :     3.043199  s :     3.043199
      pz      :     1.002708  p :     3.018973
      px      :     0.984953
      py      :     1.031312
      dz2     :     0.005232  d :     0.027230
      dxz     :     0.006190
      dyz     :     0.005854
      dx2y2   :     0.006578
      dxy     :     0.003375
  1 C s       :     3.067076  s :     3.067076
      pz      :     1.026690  p :     2.976705
      px      :     0.922066
      py      :     1.027949
      dz2     :     0.006751  d :     0.037069
      dxz     :     0.008441
      dyz     :     0.007394
      dx2y2   :     0.009323
      dxy     :     0.005160
  2 C s       :     3.164179  s :     3.164179
      pz      :     0.940542  p :     2.917767
      px      :     0.894364
      py      :     1.082861
      dz2     :     0.005709  d :     0.035299
      dxz     :     0.009906
      dyz     :     0.005052
      dx2y2   :     0.009528
      dxy     :     0.005104
  3 Brs       :     7.968765  s :     7.968765
      pz      :     5.598911  p :    17.212529
      px      :     5.649485
      py      :     5.964133
      dz2     :     2.008898  d :    10.042407
      dxz     :     2.017082
      dyz     :     2.005933
      dx2y2   :     2.005954
      dxy     :     2.004540
  4 H s       :     0.932123  s :     0.932123
      pz      :     0.005214  p :     0.023760
      px      :     0.012226
      py      :     0.006321
  5 H s       :     0.958486  s :     0.958486
      pz      :     0.011146  p :     0.025450
      px      :     0.006468
      py      :     0.007836
  6 H s       :     0.936489  s :     0.936489
      pz      :     0.005342  p :     0.023801
      px      :     0.004899
      py      :     0.013559
  7 H s       :     0.930820  s :     0.930820
      pz      :     0.005252  p :     0.022567
      px      :     0.003751
      py      :     0.013564
  8 H s       :     0.929662  s :     0.929662
      pz      :     0.010188  p :     0.022326
      px      :     0.004370
      py      :     0.007769
  9 H s       :     0.914249  s :     0.914249
      pz      :     0.013711  p :     0.026039
      px      :     0.003878
      py      :     0.008449
 10 H s       :     0.882955  s :     0.882955
      pz      :     0.004241  p :     0.022661
      px      :     0.003398
      py      :     0.015022
 11 Cls       :     5.989099  s :     5.989099
      pz      :     3.923963  p :    11.847892
      px      :     3.948126
      py      :     3.975804
      dz2     :     0.000129  d :     0.000421
      dxz     :     0.000050
      dyz     :     0.000190
      dx2y2   :     0.000032
      dxy     :     0.000019


                     *******************************
                     * LOEWDIN POPULATION ANALYSIS *
                     *******************************

----------------------
LOEWDIN ATOMIC CHARGES
----------------------
   0 C :   -0.079574
   1 C :   -0.070477
   2 C :   -0.088808
   3 Br:   -0.053689
   4 H :    0.030238
   5 H :    0.008182
   6 H :    0.026816
   7 H :    0.028664
   8 H :    0.026342
   9 H :   -0.003138
  10 H :    0.033844
  11 Cl:   -0.858400

-------------------------------
LOEWDIN REDUCED ORBITAL CHARGES
-------------------------------
  0 C s       :     2.846318  s :     2.846318
      pz      :     1.052138  p :     3.163319
      px      :     1.037268
      py      :     1.073913
      dz2     :     0.012725  d :     0.069937
      dxz     :     0.017545
      dyz     :     0.014174
      dx2y2   :     0.017310
      dxy     :     0.008182
  1 C s       :     2.845867  s :     2.845867
      pz      :     1.050241  p :     3.133045
      px      :     1.016466
      py      :     1.066337
      dz2     :     0.015615  d :     0.091565
      dxz     :     0.021999
      dyz     :     0.017925
      dx2y2   :     0.024630
      dxy     :     0.011396
  2 C s       :     2.920600  s :     2.920600
      pz      :     0.994372  p :     3.085795
      px      :     0.984935
      py      :     1.106488
      dz2     :     0.013517  d :     0.082413
      dxz     :     0.022036
      dyz     :     0.012296
      dx2y2   :     0.023851
      dxy     :     0.010713
  3 Brs       :     7.826951  s :     7.826951
      pz      :     5.592688  p :    17.172785
      px      :     5.634918
      py      :     5.945180
      dz2     :     2.011246  d :    10.053953
      dxz     :     2.022946
      dyz     :     2.006747
      dx2y2   :     2.007800
      dxy     :     2.005213
  4 H s       :     0.903547  s :     0.903547
      pz      :     0.015249  p :     0.066215
      px      :     0.034538
      py      :     0.016428
  5 H s       :     0.919419  s :     0.919419
      pz      :     0.033570  p :     0.072399
      px      :     0.017591
      py      :     0.021237
  6 H s       :     0.907103  s :     0.907103
      pz      :     0.015486  p :     0.066081
      px      :     0.013071
      py      :     0.037524
  7 H s       :     0.905083  s :     0.905083
      pz      :     0.015627  p :     0.066253
      px      :     0.012256
      py      :     0.038371
  8 H s       :     0.907353  s :     0.907353
      pz      :     0.030203  p :     0.066305
      px      :     0.014930
      py      :     0.021172
  9 H s       :     0.916330  s :     0.916330
      pz      :     0.046732  p :     0.086809
      px      :     0.014096
      py      :     0.025981
 10 H s       :     0.895047  s :     0.895047
      pz      :     0.014471  p :     0.071109
      px      :     0.012267
      py      :     0.044371
 11 Cls       :     5.983982  s :     5.983982
      pz      :     3.934005  p :    11.873954
      px      :     3.962035
      py      :     3.977914
      dz2     :     0.000140  d :     0.000463
      dxz     :     0.000059
      dyz     :     0.000204
      dx2y2   :     0.000039
      dxy     :     0.000022


                      *****************************
                      * MAYER POPULATION ANALYSIS *
                      *****************************

  NA   - Mulliken gross atomic population
  ZA   - Total nuclear charge
  QA   - Mulliken gross atomic charge
  VA   - Mayer's total valence
  BVA  - Mayer's bonded valence
  FA   - Mayer's free valence

  ATOM       NA         ZA         QA         VA         BVA        FA
  0 C      6.0894     6.0000    -0.0894     3.9619     3.9619    -0.0000
  1 C      6.0809     6.0000    -0.0809     4.0246     4.0246    -0.0000
  2 C      6.1172     6.0000    -0.1172     3.8173     3.8173     0.0000
  3 Br    35.2237    35.0000    -0.2237     1.0022     1.0022    -0.0000
  4 H      0.9559     1.0000     0.0441     0.9809     0.9809    -0.0000
  5 H      0.9839     1.0000     0.0161     1.0856     1.0856    -0.0000
  6 H      0.9603     1.0000     0.0397     0.9835     0.9835    -0.0000
  7 H      0.9534     1.0000     0.0466     0.9797     0.9797    -0.0000
  8 H      0.9520     1.0000     0.0480     0.9756     0.9756    -0.0000
  9 H      0.9403     1.0000     0.0597     1.1191     1.1191    -0.0000
 10 H      0.9056     1.0000     0.0944     0.9684     0.9684     0.0000
 11 Cl    17.8374    17.0000    -0.8374     0.3133     0.3133    -0.0000

  Mayer bond orders larger than 0.100000
B(  0-C ,  1-C ) :   1.0887 B(  0-C ,  4-H ) :   0.9664 B(  0-C ,  5-H ) :   0.9435 
B(  0-C ,  6-H ) :   0.9712 B(  1-C ,  2-C ) :   1.0410 B(  1-C ,  7-H ) :   0.9479 
B(  1-C ,  8-H ) :   0.9531 B(  2-C ,  3-Br) :   0.9653 B(  2-C ,  9-H ) :   0.8920 
B(  2-C , 10-H ) :   0.9481 B(  5-H , 11-Cl) :   0.1306 B(  9-H , 11-Cl) :   0.2120 



------------------
HIRSHFELD ANALYSIS
------------------

Total integrated alpha density =     38.997935802
Total integrated beta density  =     38.997935802

  ATOM     CHARGE      SPIN    
   0 C   -0.077705    0.000000
   1 C   -0.040851    0.000000
   2 C   -0.001716    0.000000
   3 Br  -0.179183    0.000000
   4 H    0.026404    0.000000
   5 H    0.007183    0.000000
   6 H    0.023803    0.000000
   7 H    0.023742    0.000000
   8 H    0.021884    0.000000
   9 H    0.006522    0.000000
  10 H    0.038926    0.000000
  11 Cl  -0.844881    0.000000

  TOTAL  -0.995872    0.000000

-------
TIMINGS
-------

Total SCF time: 0 days 0 hours 0 min 5 sec 

Total time                  ....       5.158 sec
Sum of individual times     ....       4.756 sec  ( 92.2%)

Fock matrix formation       ....       4.142 sec  ( 80.3%)
  Split-RI-J                ....       0.678 sec  ( 16.4% of F)
  Chain of spheres X        ....       2.071 sec  ( 50.0% of F)
  COS-X 1 center corr.      ....       0.000 sec  (  0.0% of F)
  XC integration            ....       0.229 sec  (  5.5% of F)
    Basis function eval.    ....       0.093 sec  ( 40.6% of XC)
    Density eval.           ....       0.038 sec  ( 16.5% of XC)
    XC-Functional eval.     ....       0.022 sec  (  9.7% of XC)
    XC-Potential eval.      ....       0.052 sec  ( 22.9% of XC)
Diagonalization             ....       0.002 sec  (  0.0%)
Density matrix formation    ....       0.001 sec  (  0.0%)
Population analysis         ....       0.033 sec  (  0.6%)
Initial guess               ....       0.006 sec  (  0.1%)
Orbital Transformation      ....       0.000 sec  (  0.0%)
Orbital Orthonormalization  ....       0.003 sec  (  0.1%)
DIIS solution               ....       0.000 sec  (  0.0%)
SOSCF solution              ....       0.004 sec  (  0.1%)
Grid generation             ....       0.567 sec  ( 11.0%)


-------------------------------------------------------------------------------
                          DFT DISPERSION CORRECTION                            
                                                                               
                              DFTD3 V3.1  Rev 1                                
                          USING Becke-Johnson damping                          
-------------------------------------------------------------------------------
The PBE0 functional is recognized
Active option DFTDOPT                   ...         4   

molecular C6(AA) [au] = 2272.632509 


            DFT-D V3
 parameters
 s6 scaling factor         :     1.0000 
 a1 scaling factor         :     0.4145 
 s8 scaling factor         :     1.2177 
 a2 scaling factor         :     4.8593 
 ad hoc parameters k1-k3   :    16.0000     1.3333    -4.0000 

 Edisp/kcal,au: -5.480024010240  -0.008732973209 
 E6   /kcal   :  -3.367991563 
 E8   /kcal   :  -2.112032447 
 % E8         :  38.540569225 

-------------------------   ----------------
Dispersion correction           -0.008732973
-------------------------   ----------------


-------------------------   --------------------
FINAL SINGLE POINT ENERGY     -3151.922982910003
-------------------------   --------------------

                                *** OPTIMIZATION RUN DONE ***

                            ***************************************
                            *     ORCA property calculations      *
                            ***************************************

                                    ---------------------
                                    Active property flags
                                    ---------------------
   (+) Dipole Moment


------------------------------------------------------------------------------
                       ORCA ELECTRIC PROPERTIES CALCULATION
------------------------------------------------------------------------------

Dipole Moment Calculation                       ... on
Quadrupole Moment Calculation                   ... off
Polarizability Calculation                      ... off
GBWName                                         ... manual_reactants_336_opt.gbw
Electron density file                           ... manual_reactants_336_opt.scfp
The origin for moment calculation is the CENTER OF MASS  = (-0.016969, -0.008353 -0.025271)

-------------
DIPOLE MOMENT
-------------
                                X             Y             Z
Electronic contribution:     20.67260       0.83582     -15.23618
Nuclear contribution   :    -21.01197       1.18516      10.86099
                        -----------------------------------------
Total Dipole Moment    :     -0.33937       2.02097      -4.37519
                        -----------------------------------------
Magnitude (a.u.)       :      4.83133
Magnitude (Debye)      :     12.28027



--------------------
Rotational spectrum 
--------------------
 
Rotational constants in cm-1:     0.083294     0.027603     0.021274 
Rotational constants in MHz :  2497.086347   827.525145   637.783977 

 Dipole components along the rotational axes: 
x,y,z [a.u.] :    -4.332108    -2.121864     0.268890 
x,y,z [Debye]:   -11.011343    -5.393349     0.683464 

 
[1631715180.448555] [comp0805:221972:0]            sys.c:618  UCX  ERROR shmget(size=2097152 flags=0xfb0) for mm_recv_desc failed: Operation not permitted, please check shared memory limits by 'ipcs -l'
[1631715180.450534] [comp0805:221974:0]            sys.c:618  UCX  ERROR shmget(size=2097152 flags=0xfb0) for mm_recv_desc failed: Operation not permitted, please check shared memory limits by 'ipcs -l'
[1631715180.473494] [comp0805:221973:0]            sys.c:618  UCX  ERROR shmget(size=2097152 flags=0xfb0) for mm_recv_desc failed: Operation not permitted, please check shared memory limits by 'ipcs -l'
[1631715180.473616] [comp0805:221975:0]            sys.c:618  UCX  ERROR shmget(size=2097152 flags=0xfb0) for mm_recv_desc failed: Operation not permitted, please check shared memory limits by 'ipcs -l'
[1631715180.482090] [comp0805:221972:0]            sys.c:618  UCX  ERROR shmget(size=2097152 flags=0xb80) for ucp_am_bufs failed: Operation not permitted, please check shared memory limits by 'ipcs -l'
[1631715180.482835] [comp0805:221973:0]            sys.c:618  UCX  ERROR shmget(size=2097152 flags=0xb80) for ucp_am_bufs failed: Operation not permitted, please check shared memory limits by 'ipcs -l'
[1631715180.490346] [comp0805:221974:0]            sys.c:618  UCX  ERROR shmget(size=2097152 flags=0xb80) for ucp_am_bufs failed: Operation not permitted, please check shared memory limits by 'ipcs -l'
[1631715180.490351] [comp0805:221975:0]            sys.c:618  UCX  ERROR shmget(size=2097152 flags=0xb80) for ucp_am_bufs failed: Operation not permitted, please check shared memory limits by 'ipcs -l'

Timings for individual modules:

Sum of individual times         ...      190.686 sec (=   3.178 min)
GTO integral calculation        ...       24.122 sec (=   0.402 min)  12.6 %
SCF iterations                  ...      117.192 sec (=   1.953 min)  61.5 %
SCF Gradient evaluation         ...       46.110 sec (=   0.768 min)  24.2 %
Geometry relaxation             ...        3.263 sec (=   0.054 min)   1.7 %
                             ****ORCA TERMINATED NORMALLY****
TOTAL RUN TIME: 0 days 0 hours 3 minutes 16 seconds 809 msec
