
                                 *****************
                                 * O   R   C   A *
                                 *****************

           --- An Ab Initio, DFT and Semiempirical electronic structure package ---

                  #######################################################
                  #                        -***-                        #
                  #          Department of theory and spectroscopy      #
                  #               Directorship: Frank Neese             #
                  #        Max Planck Institute fuer Kohlenforschung    #
                  #                Kaiser Wilhelm Platz 1               #
                  #                 D-45470 Muelheim/Ruhr               #
                  #                      Germany                        #
                  #                                                     #
                  #                  All rights reserved                #
                  #                        -***-                        #
                  #######################################################


                         Program Version 4.2.1 -  RELEASE  -


 With contributions from (in alphabetic order):
   Daniel Aravena         : Magnetic Suceptibility
   Michael Atanasov       : Ab Initio Ligand Field Theory (pilot matlab implementation)
   Alexander A. Auer      : GIAO ZORA, VPT2
   Ute Becker             : Parallelization
   Giovanni Bistoni       : ED, misc. LED, open-shell LED, HFLD
   Martin Brehm           : Molecular dynamics
   Dmytro Bykov           : SCF Hessian
   Vijay G. Chilkuri      : MRCI spin determinant printing, contributions to CSF-ICE
   Dipayan Datta          : RHF DLPNO-CCSD density
   Achintya Kumar Dutta   : EOM-CC, STEOM-CC
   Dmitry Ganyushin       : Spin-Orbit,Spin-Spin,Magnetic field MRCI
   Miquel Garcia          : C-PCM Hessian, Gaussian charge scheme
   Yang Guo               : DLPNO-NEVPT2, CIM, IAO-localization
   Andreas Hansen         : Spin unrestricted coupled pair/coupled cluster methods
   Benjamin Helmich-Paris : CASSCF linear response (MC-RPA)
   Lee Huntington         : MR-EOM, pCC
   Robert Izsak           : Overlap fitted RIJCOSX, COSX-SCS-MP3, EOM
   Christian Kollmar      : KDIIS, OOCD, Brueckner-CCSD(T), CCSD density
   Simone Kossmann        : Meta GGA functionals, TD-DFT gradient, OOMP2, MP2 Hessian
   Martin Krupicka        : AUTO-CI
   Lucas Lang             : DCDCAS
   Dagmar Lenk            : GEPOL surface, SMD
   Dimitrios Liakos       : Extrapolation schemes; Compound Job, initial MDCI parallelization
   Dimitrios Manganas     : Further ROCIS development; embedding schemes
   Dimitrios Pantazis     : SARC Basis sets
   Taras Petrenko         : DFT Hessian,TD-DFT gradient, ASA, ECA, R-Raman, ABS, FL, XAS/XES, NRVS
   Peter Pinski           : DLPNO-MP2, DLPNO-MP2 Gradient
   Christoph Reimann      : Effective Core Potentials
   Marius Retegan         : Local ZFS, SOC
   Christoph Riplinger    : Optimizer, TS searches, QM/MM, DLPNO-CCSD(T), (RO)-DLPNO pert. Triples
   Tobias Risthaus        : Range-separated hybrids, TD-DFT gradient, RPA, STAB
   Michael Roemelt        : Original ROCIS implementation
   Masaaki Saitow         : Open-shell DLPNO-CCSD energy and density
   Barbara Sandhoefer     : DKH picture change effects
   Avijit Sen             : IP-ROCIS
   Kantharuban Sivalingam : CASSCF convergence, NEVPT2, FIC-MRCI
   Bernardo de Souza      : ESD, SOC TD-DFT
   Georgi Stoychev        : AutoAux, RI-MP2 NMR
   Willem Van den Heuvel  : Paramagnetic NMR
   Boris Wezisla          : Elementary symmetry handling
   Frank Wennmohs         : Technical directorship


 We gratefully acknowledge several colleagues who have allowed us to
 interface, adapt or use parts of their codes:
   Stefan Grimme, W. Hujo, H. Kruse,             : VdW corrections, initial TS optimization,
                  C. Bannwarth                     DFT functionals, gCP, sTDA/sTD-DF
   Ed Valeev, F. Pavosevic, A. Kumar             : LibInt (2-el integral package), F12 methods
   Garnet Chan, S. Sharma, J. Yang, R. Olivares  : DMRG
   Ulf Ekstrom                                   : XCFun DFT Library
   Mihaly Kallay                                 : mrcc  (arbitrary order and MRCC methods)
   Andreas Klamt, Michael Diedenhofen            : otool_cosmo (COSMO solvation model)
   Jiri Pittner, Ondrej Demel                    : Mk-CCSD
   Frank Weinhold                                : gennbo (NPA and NBO analysis)
   Christopher J. Cramer and Donald G. Truhlar   : smd solvation model
   Lars Goerigk                                  : TD-DFT with DH, B97 family of functionals
   V. Asgeirsson, H. Jonsson                     : NEB implementation
   FAccTs GmbH                                   : IRC, NEB, NEB-TS, Multilevel, MM, QM/MM, CI optimization
   S Lehtola, MJT Oliveira, MAL Marques          : LibXC Library


 Your calculation uses the libint2 library for the computation of 2-el integrals
 For citations please refer to: http://libint.valeyev.net

 Your ORCA version has been built with support for libXC version: 4.2.3
 For citations please refer to: https://tddft.org/programs/libxc/

 This ORCA versions uses:
   CBLAS   interface :  Fast vector & matrix operations
   LAPACKE interface :  Fast linear algebra routines
   SCALAPACK package :  Parallel linear algebra routines


Your calculation utilizes the atom-pairwise dispersion correction
with the Becke-Johnson damping scheme (D3BJ)
Cite in your paper:
S.Grimme, S.Ehrlich, L.Goerigk, J Comput Chem, (2011), 32, 1456–1465 
S.Grimme, J.Antony, S.Ehrlich and H.Krieg, J.Chem.Phys., 132, (2010), 154104 
   

----- Orbital basis set information -----
Your calculation utilizes the basis: def2-SVP
   F. Weigend and R. Ahlrichs, Phys. Chem. Chem. Phys. 7, 3297 (2005).

----- AuxJ basis set information -----
Your calculation utilizes the auxiliary basis: def2/J
   F. Weigend, Phys. Chem. Chem. Phys. 8, 1057 (2006).

================================================================================
                                        WARNINGS
                       Please study these warnings very carefully!
================================================================================


WARNING: Geometry Optimization
  ===> : Switching off AutoStart
         For restart on a previous wavefunction, please use MOREAD

INFO   : the flag for use of LIBINT has been found!

================================================================================
                                       INPUT FILE
================================================================================
NAME = manual_reactants_344_opt.inp
|  1> ! Opt PBE0 RIJCOSX D3BJ def2-SVP def2/J CPCM(DMF)
|  2> %geom MaxIter 100 end
|  3> %output 
|  4> xyzfile=True 
|  5> end 
|  6> %scf 
|  7> maxiter 250 
|  8> end
|  9> %output
| 10> Print[P_Hirshfeld] = 1
| 11> end
| 12> % maxcore
| 13> 4000
| 14> %pal nprocs 4
| 15> end
| 16> *xyz -1 1
| 17> C    -0.01979  -1.09910   0.98829
| 18> C     0.62608  -0.45436  -0.23365
| 19> C     1.44209   0.77508   0.15024
| 20> C    -0.34576  -0.20626  -1.37127
| 21> Br   -1.80729   1.03011  -0.91373
| 22> H     0.77242  -1.42623   1.68077
| 23> H    -0.67675  -0.38260   1.50830
| 24> H    -0.62784  -1.97382   0.70840
| 25> H     1.33372  -1.19403  -0.65745
| 26> H     1.90452   1.25152  -0.72926
| 27> H     0.81333   1.52714   0.65409
| 28> H     2.23955   0.46849   0.84375
| 29> H     0.14473   0.25813  -2.23694
| 30> H    -0.85387  -1.12652  -1.68677
| 31> Cl    3.35289  -1.91424   2.21495
| 32> *
| 33> 
| 34>                          ****END OF INPUT****
================================================================================

                       *****************************
                       * Geometry Optimization Run *
                       *****************************

Geometry optimization settings:
Update method            Update   .... BFGS
Choice of coordinates    CoordSys .... Z-matrix Internals
Initial Hessian          InHess   .... Almoef's Model

Convergence Tolerances:
Energy Change            TolE     ....  5.0000e-06 Eh
Max. Gradient            TolMAXG  ....  3.0000e-04 Eh/bohr
RMS Gradient             TolRMSG  ....  1.0000e-04 Eh/bohr
Max. Displacement        TolMAXD  ....  4.0000e-03 bohr
RMS Displacement         TolRMSD  ....  2.0000e-03 bohr
Strict Convergence                ....  False
------------------------------------------------------------------------------
                        ORCA OPTIMIZATION COORDINATE SETUP
------------------------------------------------------------------------------

The optimization will be done in new redundant internal coordinates
Making redundant internal coordinates   ...  (new redundants) done
Evaluating the initial hessian          ...  (Almloef) done
Evaluating the coordinates              ...  done
Calculating the B-matrix                .... done
Calculating the G-matrix                .... done
Diagonalizing the G-matrix              .... done
The first mode is                       ....   38
The number of degrees of freedom        ....   39

    -----------------------------------------------------------------
                    Redundant Internal Coordinates


    -----------------------------------------------------------------
         Definition                    Initial Value    Approx d2E/dq
    -----------------------------------------------------------------
      1. B(C   1,C   0)                  1.5251         0.380340   
      2. B(C   2,C   1)                  1.5247         0.380894   
      3. B(C   3,C   1)                  1.5166         0.392363   
      4. B(Br  4,C   3)                  1.9683         0.250995   
      5. B(H   5,C   0)                  1.1019         0.344722   
      6. B(H   6,C   0)                  1.1024         0.344011   
      7. B(H   7,C   0)                  1.1015         0.345264   
      8. B(H   8,C   1)                  1.1079         0.337166   
      9. B(H   9,C   2)                  1.1020         0.344597   
     10. B(H  10,C   2)                  1.1022         0.344344   
     11. B(H  11,C   2)                  1.1004         0.346592   
     12. B(H  12,C   3)                  1.0980         0.349660   
     13. B(H  13,C   3)                  1.0975         0.350262   
     14. B(Cl 14,H  11)                  2.9660         0.000821   
     15. B(Cl 14,H   5)                  2.6800         0.002348   
     16. A(C   1,C   0,H   6)          110.8261         0.322845   
     17. A(C   1,C   0,H   5)          108.9388         0.322954   
     18. A(C   1,C   0,H   7)          111.4639         0.323037   
     19. A(H   5,C   0,H   6)          108.9629         0.286799   
     20. A(H   5,C   0,H   7)          108.7128         0.286961   
     21. A(H   6,C   0,H   7)          107.8801         0.286869   
     22. A(C   0,C   1,C   2)          111.4567         0.365680   
     23. A(C   3,C   1,H   8)          103.3893         0.323429   
     24. A(C   0,C   1,H   8)          107.1414         0.321783   
     25. A(C   2,C   1,H   8)          107.0263         0.321860   
     26. A(C   0,C   1,C   3)          113.5014         0.367545   
     27. A(C   2,C   1,C   3)          113.5713         0.367636   
     28. A(C   1,C   2,H  10)          111.0993         0.322973   
     29. A(C   1,C   2,H   9)          111.8549         0.323012   
     30. A(H   9,C   2,H  11)          108.6232         0.287117   
     31. A(C   1,C   2,H  11)          108.7759         0.323318   
     32. A(H   9,C   2,H  10)          108.0127         0.286826   
     33. A(H  10,C   2,H  11)          108.3864         0.287084   
     34. A(H  12,C   3,H  13)          109.5600         0.288247   
     35. A(Br  4,C   3,H  13)          104.4627         0.320877   
     36. A(C   1,C   3,H  13)          112.0313         0.325460   
     37. A(Br  4,C   3,H  12)          104.4364         0.320787   
     38. A(C   1,C   3,H  12)          111.9819         0.325368   
     39. A(C   1,C   3,Br  4)          113.8414         0.364077   
     40. A(C   0,H   5,Cl 14)          150.6440         0.158110   
     41. A(C   2,H  11,Cl 14)          141.9258         0.143550   
     42. A(H   5,Cl 14,H  11)           53.1399         0.108027   
     43. D(C   3,C   1,C   0,H   7)     48.9611         0.011528   
     44. D(H   8,C   1,C   0,H   6)    175.3175         0.011528   
     45. D(C   2,C   1,C   0,H   6)     58.5440         0.011528   
     46. D(H   8,C   1,C   0,H   5)     55.4436         0.011528   
     47. D(C   2,C   1,C   0,H   5)    -61.3299         0.011528   
     48. D(C   3,C   1,C   0,H   6)    -71.2063         0.011528   
     49. D(H   8,C   1,C   0,H   7)    -64.5151         0.011528   
     50. D(C   3,C   1,C   0,H   5)    168.9198         0.011528   
     51. D(C   2,C   1,C   0,H   7)    178.7114         0.011528   
     52. D(H  10,C   2,C   1,C   3)     71.0121         0.011560   
     53. D(H   9,C   2,C   1,H   8)     63.6660         0.011560   
     54. D(H   9,C   2,C   1,C   3)    -49.7768         0.011560   
     55. D(H   9,C   2,C   1,C   0)   -179.4904         0.011560   
     56. D(H  10,C   2,C   1,H   8)   -175.5451         0.011560   
     57. D(H  11,C   2,C   1,H   8)    -56.3183         0.011560   
     58. D(H  11,C   2,C   1,C   3)   -169.7611         0.011560   
     59. D(H  11,C   2,C   1,C   0)     60.5252         0.011560   
     60. D(H  10,C   2,C   1,C   0)    -58.7015         0.011560   
     61. D(H  13,C   3,C   1,C   2)    174.8720         0.012233   
     62. D(H  13,C   3,C   1,C   0)    -56.4520         0.012233   
     63. D(H  12,C   3,C   1,H   8)    -64.2993         0.012233   
     64. D(H  12,C   3,C   1,C   2)     51.3108         0.012233   
     65. D(H  12,C   3,C   1,C   0)    179.9868         0.012233   
     66. D(Br  4,C   3,C   1,H   8)    177.5161         0.012233   
     67. D(Br  4,C   3,C   1,C   2)    -66.8738         0.012233   
     68. D(H  13,C   3,C   1,H   8)     59.2619         0.012233   
     69. D(Br  4,C   3,C   1,C   0)     61.8021         0.012233   
     70. D(Cl 14,H   5,C   0,H   7)    109.8884         0.109259   
     71. D(Cl 14,H   5,C   0,H   6)   -132.7792         0.109259   
     72. D(Cl 14,H   5,C   0,C   1)    -11.7582         0.109259   
     73. D(Cl 14,H  11,C   2,C   1)      0.2339         0.110700   
     74. D(Cl 14,H  11,C   2,H  10)    121.1427         0.110700   
     75. D(Cl 14,H  11,C   2,H   9)   -121.7356         0.110700   
     76. D(H   5,Cl 14,H  11,C   2)    -35.4546         0.001500   
     77. D(H  11,Cl 14,H   5,C   0)     45.2626         0.001501   
    -----------------------------------------------------------------

Number of atoms                         .... 15
Number of degrees of freedom            .... 77

         *************************************************************
         *                GEOMETRY OPTIMIZATION CYCLE   1            *
         *************************************************************
---------------------------------
CARTESIAN COORDINATES (ANGSTROEM)
---------------------------------
  C     -0.019790   -1.099100    0.988290
  C      0.626080   -0.454360   -0.233650
  C      1.442090    0.775080    0.150240
  C     -0.345760   -0.206260   -1.371270
  Br    -1.807290    1.030110   -0.913730
  H      0.772420   -1.426230    1.680770
  H     -0.676750   -0.382600    1.508300
  H     -0.627840   -1.973820    0.708400
  H      1.333720   -1.194030   -0.657450
  H      1.904520    1.251520   -0.729260
  H      0.813330    1.527140    0.654090
  H      2.239550    0.468490    0.843750
  H      0.144730    0.258130   -2.236940
  H     -0.853870   -1.126520   -1.686770
  Cl     3.352890   -1.914240    2.214950

----------------------------
CARTESIAN COORDINATES (A.U.)
----------------------------
  NO LB      ZA    FRAG     MASS         X           Y           Z
   0 C     6.0000    0    12.011   -0.037398   -2.076998    1.867597
   1 C     6.0000    0    12.011    1.183120   -0.858616   -0.441535
   2 C     6.0000    0    12.011    2.725155    1.464689    0.283912
   3 C     6.0000    0    12.011   -0.653392   -0.389775   -2.591325
   4 Br   35.0000    0    79.900   -3.415283    1.946626   -1.726699
   5 H     1.0000    0     1.008    1.459662   -2.695184    3.176195
   6 H     1.0000    0     1.008   -1.278872   -0.723009    2.850274
   7 H     1.0000    0     1.008   -1.186446   -3.729979    1.338682
   8 H     1.0000    0     1.008    2.520366   -2.256390   -1.242400
   9 H     1.0000    0     1.008    3.599021    2.365030   -1.378102
  10 H     1.0000    0     1.008    1.536971    2.885876    1.236051
  11 H     1.0000    0     1.008    4.232136    0.885318    1.594456
  12 H     1.0000    0     1.008    0.273500    0.487795   -4.227204
  13 H     1.0000    0     1.008   -1.613580   -2.128814   -3.187533
  14 Cl   17.0000    0    35.453    6.336044   -3.617389    4.185649

--------------------------------
INTERNAL COORDINATES (ANGSTROEM)
--------------------------------
 C      0   0   0     0.000000000000     0.00000000     0.00000000
 C      1   0   0     1.525114778664     0.00000000     0.00000000
 C      2   1   0     1.524718520187   111.45667499     0.00000000
 C      2   1   3     1.516642957324   113.50142382   230.24972309
 Br     4   2   1     1.968253939257   113.84136327    61.80214426
 H      1   2   3     1.101879880659   108.93882010   298.67012545
 H      1   2   3     1.102442330328   110.82610576    58.54397925
 H      1   2   3     1.101452810156   111.46390676   178.71138444
 H      2   1   3     1.107913588011   107.14144925   116.77350156
 H      3   2   1     1.101978597115   111.85494450   180.50960385
 H      3   2   1     1.102178843791   111.09934369   301.29848787
 H      3   2   1     1.100407197268   108.77590001    60.52524243
 H      4   2   1     1.098008679884   111.98194155   179.98676730
 H      4   2   1     1.097540199583   112.03129335   303.54795721
 Cl     6   1   2     2.679986465152   150.64395079   348.24177936

---------------------------
INTERNAL COORDINATES (A.U.)
---------------------------
 C      0   0   0     0.000000000000     0.00000000     0.00000000
 C      1   0   0     2.882049254471     0.00000000     0.00000000
 C      2   1   0     2.881300434470   111.45667499     0.00000000
 C      2   1   3     2.866039832282   113.50142382   230.24972309
 Br     4   2   1     3.719460907207   113.84136327    61.80214426
 H      1   2   3     2.082251206922   108.93882010   298.67012545
 H      1   2   3     2.083314082763   110.82610576    58.54397925
 H      1   2   3     2.081444160632   111.46390676   178.71138444
 H      2   1   3     2.093653261391   107.14144925   116.77350156
 H      3   2   1     2.082437753990   111.85494450   180.50960385
 H      3   2   1     2.082816165367   111.09934369   301.29848787
 H      3   2   1     2.079468238633   108.77590001    60.52524243
 H      4   2   1     2.074935697649   111.98194155   179.98676730
 H      4   2   1     2.074050398181   112.03129335   303.54795721
 Cl     6   1   2     5.064440461754   150.64395079   348.24177936

---------------------
BASIS SET INFORMATION
---------------------
There are 4 groups of distinct atoms

 Group   1 Type C   : 7s4p1d contracted to 3s2p1d pattern {511/31/1}
 Group   2 Type Br  : 14s10p6d contracted to 5s4p3d pattern {63311/5311/411}
 Group   3 Type H   : 4s1p contracted to 2s1p pattern {31/1}
 Group   4 Type Cl  : 10s7p1d contracted to 4s3p1d pattern {5311/511/1}

Atom   0C    basis set group =>   1
Atom   1C    basis set group =>   1
Atom   2C    basis set group =>   1
Atom   3C    basis set group =>   1
Atom   4Br   basis set group =>   2
Atom   5H    basis set group =>   3
Atom   6H    basis set group =>   3
Atom   7H    basis set group =>   3
Atom   8H    basis set group =>   3
Atom   9H    basis set group =>   3
Atom  10H    basis set group =>   3
Atom  11H    basis set group =>   3
Atom  12H    basis set group =>   3
Atom  13H    basis set group =>   3
Atom  14Cl   basis set group =>   4
---------------------------------
AUXILIARY/J BASIS SET INFORMATION
---------------------------------
There are 4 groups of distinct atoms

 Group   1 Type C   : 12s5p4d2f1g contracted to 6s4p3d1f1g pattern {711111/2111/211/2/1}
 Group   2 Type Br  : 19s5p5d3f1g contracted to 8s4p3d2f1g pattern {121111111/2111/311/21/1}
 Group   3 Type H   : 5s2p1d contracted to 3s1p1d pattern {311/2/1}
 Group   4 Type Cl  : 14s5p5d2f1g contracted to 8s4p3d1f1g pattern {71111111/2111/311/2/1}

Atom   0C    basis set group =>   1
Atom   1C    basis set group =>   1
Atom   2C    basis set group =>   1
Atom   3C    basis set group =>   1
Atom   4Br   basis set group =>   2
Atom   5H    basis set group =>   3
Atom   6H    basis set group =>   3
Atom   7H    basis set group =>   3
Atom   8H    basis set group =>   3
Atom   9H    basis set group =>   3
Atom  10H    basis set group =>   3
Atom  11H    basis set group =>   3
Atom  12H    basis set group =>   3
Atom  13H    basis set group =>   3
Atom  14Cl   basis set group =>   4
[1631720658.297983] [comp0813:212398:0]            sys.c:618  UCX  ERROR shmget(size=2097152 flags=0xfb0) for mm_recv_desc failed: Operation not permitted, please check shared memory limits by 'ipcs -l'
[1631720658.300531] [comp0813:212400:0]            sys.c:618  UCX  ERROR shmget(size=2097152 flags=0xfb0) for mm_recv_desc failed: Operation not permitted, please check shared memory limits by 'ipcs -l'
[1631720658.302363] [comp0813:212401:0]            sys.c:618  UCX  ERROR shmget(size=2097152 flags=0xfb0) for mm_recv_desc failed: Operation not permitted, please check shared memory limits by 'ipcs -l'
[1631720658.303277] [comp0813:212399:0]            sys.c:618  UCX  ERROR shmget(size=2097152 flags=0xfb0) for mm_recv_desc failed: Operation not permitted, please check shared memory limits by 'ipcs -l'
[1631720658.330009] [comp0813:212398:0]            sys.c:618  UCX  ERROR shmget(size=2097152 flags=0xb80) for ucp_am_bufs failed: Operation not permitted, please check shared memory limits by 'ipcs -l'
[1631720658.330667] [comp0813:212400:0]            sys.c:618  UCX  ERROR shmget(size=2097152 flags=0xb80) for ucp_am_bufs failed: Operation not permitted, please check shared memory limits by 'ipcs -l'
[1631720658.335845] [comp0813:212399:0]            sys.c:618  UCX  ERROR shmget(size=2097152 flags=0xb80) for ucp_am_bufs failed: Operation not permitted, please check shared memory limits by 'ipcs -l'
[1631720658.336102] [comp0813:212401:0]            sys.c:618  UCX  ERROR shmget(size=2097152 flags=0xb80) for ucp_am_bufs failed: Operation not permitted, please check shared memory limits by 'ipcs -l'


           ************************************************************
           *        Program running with 4 parallel MPI-processes     *
           *              working on a common directory               *
           ************************************************************
------------------------------------------------------------------------------
                           ORCA GTO INTEGRAL CALCULATION
                           -- RI-GTO INTEGRALS CHOSEN --
------------------------------------------------------------------------------

                         BASIS SET STATISTICS AND STARTUP INFO

Gaussian basis set:
 # of primitive gaussian shells          ...  141
 # of primitive gaussian functions       ...  269
 # of contracted shells                  ...   71
 # of contracted basis functions         ...  151
 Highest angular momentum                ...    2
 Maximum contraction depth               ...    6
Auxiliary gaussian basis set:
 # of primitive gaussian shells          ...  228
 # of primitive gaussian functions       ...  590
 # of contracted shells                  ...  140
 # of contracted aux-basis functions     ...  404
 Highest angular momentum                ...    4
 Maximum contraction depth               ...   12
Ratio of auxiliary to basis functions    ...  2.68
Integral package used                  ... LIBINT
 One Electron integrals                  ... done
 Ordering auxiliary basis shells         ... done
 Integral threshhold             Thresh  ...  2.500e-11
 Primitive cut-off               TCut    ...  2.500e-12
 Pre-screening matrix                    ... done
 Shell pair data                         ... 
 Ordering of the shell pairs             ... done (   0.000 sec) 2338 of 2556 pairs
 Determination of significant pairs      ... done (   0.000 sec)
 Creation of shell pair data             ... done (   0.000 sec)
 Storage of shell pair data              ... done (   0.002 sec)
 Shell pair data done in (   0.003 sec)
 Computing two index integrals           ... done
 Cholesky decomposition of the V-matrix  ... done


Timings:
 Total evaluation time                   ...   0.197 sec (  0.003 min)
 One electron matrix time                ...   0.025 sec (  0.000 min) = 12.4%
 Schwartz matrix evaluation time         ...   0.122 sec (  0.002 min) = 61.9%
 Two index repulsion integral time       ...   0.004 sec (  0.000 min) =  1.8%
 Cholesky decomposition of V             ...   0.002 sec (  0.000 min) =  1.1%
 Three index repulsion integral time     ...   0.000 sec (  0.000 min) =  0.0%

[1631720659.480108] [comp0813:212419:0]            sys.c:618  UCX  ERROR shmget(size=2097152 flags=0xfb0) for mm_recv_desc failed: Operation not permitted, please check shared memory limits by 'ipcs -l'
[1631720659.480989] [comp0813:212421:0]            sys.c:618  UCX  ERROR shmget(size=2097152 flags=0xfb0) for mm_recv_desc failed: Operation not permitted, please check shared memory limits by 'ipcs -l'
[1631720659.496386] [comp0813:212422:0]            sys.c:618  UCX  ERROR shmget(size=2097152 flags=0xfb0) for mm_recv_desc failed: Operation not permitted, please check shared memory limits by 'ipcs -l'
[1631720659.496771] [comp0813:212420:0]            sys.c:618  UCX  ERROR shmget(size=2097152 flags=0xfb0) for mm_recv_desc failed: Operation not permitted, please check shared memory limits by 'ipcs -l'
[1631720659.518274] [comp0813:212419:0]            sys.c:618  UCX  ERROR shmget(size=2097152 flags=0xb80) for ucp_am_bufs failed: Operation not permitted, please check shared memory limits by 'ipcs -l'
[1631720659.518278] [comp0813:212420:0]            sys.c:618  UCX  ERROR shmget(size=2097152 flags=0xb80) for ucp_am_bufs failed: Operation not permitted, please check shared memory limits by 'ipcs -l'
[1631720659.518869] [comp0813:212421:0]            sys.c:618  UCX  ERROR shmget(size=2097152 flags=0xb80) for ucp_am_bufs failed: Operation not permitted, please check shared memory limits by 'ipcs -l'
[1631720659.518923] [comp0813:212422:0]            sys.c:618  UCX  ERROR shmget(size=2097152 flags=0xb80) for ucp_am_bufs failed: Operation not permitted, please check shared memory limits by 'ipcs -l'


           ************************************************************
           *        Program running with 4 parallel MPI-processes     *
           *              working on a common directory               *
           ************************************************************
-------------------------------------------------------------------------------
                                 ORCA SCF
-------------------------------------------------------------------------------

------------
SCF SETTINGS
------------
Hamiltonian:
 Density Functional     Method          .... DFT(GTOs)
 Exchange Functional    Exchange        .... PBE
   PBE kappa parameter   XKappa         ....  0.804000
   PBE mue parameter    XMuePBE         ....  0.219520
 Correlation Functional Correlation     .... PBE
   PBE beta parameter  CBetaPBE         ....  0.066725
 LDA part of GGA corr.  LDAOpt          .... PW91-LDA
 Gradients option       PostSCFGGA      .... off
 Hybrid DFT is turned on
   Fraction HF Exchange ScalHFX         ....  0.250000
   Scaling of DF-GGA-X  ScalDFX         ....  0.750000
   Scaling of DF-GGA-C  ScalDFC         ....  1.000000
   Scaling of DF-LDA-C  ScalLDAC        ....  1.000000
   Perturbative correction              ....  0.000000
   Density functional embedding theory  .... OFF
   NL short-range parameter             ....  6.900000
 RI-approximation to the Coulomb term is turned on
   Number of auxiliary basis functions  .... 404
   RIJ-COSX (HFX calculated with COS-X)).... on


General Settings:
 Integral files         IntName         .... manual_reactants_344_opt
 Hartree-Fock type      HFTyp           .... RHF
 Total Charge           Charge          ....   -1
 Multiplicity           Mult            ....    1
 Number of Electrons    NEL             ....   86
 Basis Dimension        Dim             ....  151
 Nuclear Repulsion      ENuc            ....    455.2669877845 Eh

Convergence Acceleration:
 DIIS                   CNVDIIS         .... on
   Start iteration      DIISMaxIt       ....    12
   Startup error        DIISStart       ....  0.200000
   # of expansion vecs  DIISMaxEq       ....     5
   Bias factor          DIISBfac        ....   1.050
   Max. coefficient     DIISMaxC        ....  10.000
 Newton-Raphson         CNVNR           .... off
 SOSCF                  CNVSOSCF        .... on
   Start iteration      SOSCFMaxIt      ....   150
   Startup grad/error   SOSCFStart      ....  0.003300
 Level Shifting         CNVShift        .... on
   Level shift para.    LevelShift      ....    0.2500
   Turn off err/grad.   ShiftErr        ....    0.0010
 Zerner damping         CNVZerner       .... off
 Static damping         CNVDamp         .... on
   Fraction old density DampFac         ....    0.7000
   Max. Damping (<1)    DampMax         ....    0.9800
   Min. Damping (>=0)   DampMin         ....    0.0000
   Turn off err/grad.   DampErr         ....    0.1000
 Fernandez-Rico         CNVRico         .... off

SCF Procedure:
 Maximum # iterations   MaxIter         ....   250
 SCF integral mode      SCFMode         .... Direct
   Integral package                     .... LIBINT
 Reset frequency        DirectResetFreq ....    20
 Integral Threshold     Thresh          ....  2.500e-11 Eh
 Primitive CutOff       TCut            ....  2.500e-12 Eh

Convergence Tolerance:
 Convergence Check Mode ConvCheckMode   .... Total+1el-Energy
 Convergence forced     ConvForced      .... 0
 Energy Change          TolE            ....  1.000e-08 Eh
 1-El. energy change                    ....  1.000e-05 Eh
 Orbital Gradient       TolG            ....  1.000e-05
 Orbital Rotation angle TolX            ....  1.000e-05
 DIIS Error             TolErr          ....  5.000e-07


Diagonalization of the overlap matrix:
Smallest eigenvalue                        ... 2.099e-03
Time for diagonalization                   ...    0.008 sec
Threshold for overlap eigenvalues          ... 1.000e-08
Number of eigenvalues below threshold      ... 0
Time for construction of square roots      ...    0.002 sec
Total time needed                          ...    0.011 sec

-------------------
DFT GRID GENERATION
-------------------

General Integration Accuracy     IntAcc      ...  4.340
Radial Grid Type                 RadialGrid  ... Gauss-Chebyshev
Angular Grid (max. acc.)         AngularGrid ... Lebedev-110
Angular grid pruning method      GridPruning ... 3 (G Style)
Weight generation scheme         WeightScheme... Becke
Basis function cutoff            BFCut       ...    1.0000e-11
Integration weight cutoff        WCut        ...    1.0000e-14
Grids for H and He will be reduced by one unit

# of grid points (after initial pruning)     ...  18504 (   0.0 sec)
# of grid points (after weights+screening)   ...  17336 (   0.0 sec)
nearest neighbour list constructed           ...    0.0 sec
Grid point re-assignment to atoms done       ...    0.0 sec
Grid point division into batches done        ...    0.0 sec
Reduced shell lists constructed in    0.1 sec

Total number of grid points                  ...    17336
Total number of batches                      ...      279
Average number of points per batch           ...       62
Average number of grid points per atom       ...     1156
Average number of shells per batch           ...    54.46 (76.71%)
Average number of basis functions per batch  ...   114.27 (75.67%)
Average number of large shells per batch     ...    45.68 (83.86%)
Average number of large basis fcns per batch ...    93.37 (81.71%)
Maximum spatial batch extension              ...  14.21, 15.66, 16.53 au
Average spatial batch extension              ...   0.59,  0.60,  0.62 au

Time for grid setup =    0.115 sec

------------------------------
INITIAL GUESS: MODEL POTENTIAL
------------------------------
Loading Hartree-Fock densities                     ... done
Calculating cut-offs                               ... done
Setting up the integral package                    ... done
Initializing the effective Hamiltonian             ... done
Starting the Coulomb interaction                   ... done (   0.0 sec)
Reading the grid                                   ... done
Mapping shells                                     ... done
Starting the XC term evaluation                    ... done (   0.0 sec)
  promolecular density results
     # of electrons  =     84.999958562
     EX              =   -139.716083505
     EC              =     -3.435560936
     EX+EC           =   -143.151644441
Transforming the Hamiltonian                       ... done (   0.0 sec)
Diagonalizing the Hamiltonian                      ... done (   0.0 sec)
Back transforming the eigenvectors                 ... done (   0.0 sec)
Now organizing SCF variables                       ... done
                      ------------------
                      INITIAL GUESS DONE (   0.3 sec)
                      ------------------
--------------------
COSX GRID GENERATION
--------------------

General Integration Accuracy     IntAcc      ...  3.340
Radial Grid Type                 RadialGrid  ... Gauss-Chebyshev
Angular Grid (max. acc.)         AngularGrid ... Lebedev-50
Angular grid pruning method      GridPruning ... 3 (G Style)
Weight generation scheme         WeightScheme... Becke
Basis function cutoff            BFCut       ...    1.0000e-11
Integration weight cutoff        WCut        ...    1.0000e-14
Grids for H and He will be reduced by one unit

# of grid points (after initial pruning)     ...   6948 (   0.0 sec)
# of grid points (after weights+screening)   ...   6517 (   0.0 sec)
nearest neighbour list constructed           ...    0.0 sec
Grid point re-assignment to atoms done       ...    0.0 sec
Grid point division into batches done        ...    0.0 sec
Reduced shell lists constructed in    0.0 sec

Total number of grid points                  ...     6517
Total number of batches                      ...      110
Average number of points per batch           ...       59
Average number of grid points per atom       ...      434
Average number of shells per batch           ...    56.10 (79.02%)
Average number of basis functions per batch  ...   118.45 (78.44%)
Average number of large shells per batch     ...    47.59 (84.82%)
Average number of large basis fcns per batch ...    97.45 (82.27%)
Maximum spatial batch extension              ...  14.82, 11.24, 15.74 au
Average spatial batch extension              ...   0.74,  0.70,  0.71 au

Overlap Fitting                  UseSFitting ... on
Constructing numerical overlap ... done (      0.0 sec)
Inverting numerical overlap    ... done (      0.0 sec)
Obtaining analytic overlap     ... done (      0.0 sec)
Final contraction and storage  ... done (      0.0 sec)


General Integration Accuracy     IntAcc      ...  3.670
Radial Grid Type                 RadialGrid  ... Gauss-Chebyshev
Angular Grid (max. acc.)         AngularGrid ... Lebedev-50
Angular grid pruning method      GridPruning ... 3 (G Style)
Weight generation scheme         WeightScheme... Becke
Basis function cutoff            BFCut       ...    1.0000e-11
Integration weight cutoff        WCut        ...    1.0000e-14
Grids for H and He will be reduced by one unit

# of grid points (after initial pruning)     ...   8800 (   0.0 sec)
# of grid points (after weights+screening)   ...   8229 (   0.0 sec)
nearest neighbour list constructed           ...    0.0 sec
Grid point re-assignment to atoms done       ...    0.0 sec
Grid point division into batches done        ...    0.0 sec
Reduced shell lists constructed in    0.0 sec

Total number of grid points                  ...     8229
Total number of batches                      ...      136
Average number of points per batch           ...       60
Average number of grid points per atom       ...      549
Average number of shells per batch           ...    55.83 (78.63%)
Average number of basis functions per batch  ...   117.60 (77.88%)
Average number of large shells per batch     ...    47.17 (84.49%)
Average number of large basis fcns per batch ...    96.66 (82.19%)
Maximum spatial batch extension              ...  15.68, 12.27, 16.85 au
Average spatial batch extension              ...   0.69,  0.62,  0.68 au

Overlap Fitting                  UseSFitting ... on
Constructing numerical overlap ... done (      0.0 sec)
Inverting numerical overlap    ... done (      0.0 sec)
Obtaining analytic overlap     ... done (      0.0 sec)
Final contraction and storage  ... done (      0.0 sec)


General Integration Accuracy     IntAcc      ...  4.010
Radial Grid Type                 RadialGrid  ... Gauss-Chebyshev
Angular Grid (max. acc.)         AngularGrid ... Lebedev-110
Angular grid pruning method      GridPruning ... 3 (G Style)
Weight generation scheme         WeightScheme... Becke
Basis function cutoff            BFCut       ...    1.0000e-11
Integration weight cutoff        WCut        ...    1.0000e-14
Grids for H and He will be reduced by one unit

# of grid points (after initial pruning)     ...  16122 (   0.0 sec)
# of grid points (after weights+screening)   ...  15132 (   0.0 sec)
nearest neighbour list constructed           ...    0.0 sec
Grid point re-assignment to atoms done       ...    0.0 sec
Grid point division into batches done        ...    0.0 sec
Reduced shell lists constructed in    0.0 sec

Total number of grid points                  ...    15132
Total number of batches                      ...      244
Average number of points per batch           ...       62
Average number of grid points per atom       ...     1009
Average number of shells per batch           ...    54.71 (77.06%)
Average number of basis functions per batch  ...   115.06 (76.20%)
Average number of large shells per batch     ...    46.08 (84.23%)
Average number of large basis fcns per batch ...    94.37 (82.02%)
Maximum spatial batch extension              ...  13.99, 15.20, 15.65 au
Average spatial batch extension              ...   0.64,  0.64,  0.67 au

Overlap Fitting                  UseSFitting ... on
Constructing numerical overlap ... done (      0.0 sec)
Inverting numerical overlap    ... done (      0.0 sec)
Obtaining analytic overlap     ... done (      0.0 sec)
Final contraction and storage  ... done (      0.0 sec)

Time for X-Grid setup             =    0.162 sec

--------------------
CPCM SOLVATION MODEL
--------------------
CPCM parameters:
  Epsilon                                         ...      38.3000
  Refrac                                          ...       1.4300
  Rsolv                                           ...       1.3000
  Surface type                                    ...    GEPOL SES
  Epsilon function type                           ...         CPCM
Radii:
 Radius for C  used is    3.7795 Bohr (=   2.0000 Ang.)
 Radius for Br used is    4.0818 Bohr (=   2.1600 Ang.)
 Radius for H  used is    2.4566 Bohr (=   1.3000 Ang.)
 Radius for Cl used is    3.8739 Bohr (=   2.0500 Ang.)
Calculating surface                               ...        done! (  0.0s)
GEPOL surface points                              ...          627
GEPOL Volume                                      ...    1119.1259
GEPOL Surface-area                                ...     628.6976
Calculating surface distance matrix               ...        done! (  0.0s)
Performing Cholesky decomposition & store         ...        done! (  0.0s)
Overall time for CPCM initialization              ...                 0.0s
--------------
SCF ITERATIONS
--------------
ITER       Energy         Delta-E        Max-DP      RMS-DP      [F,P]     Damp
               ***  Starting incremental Fock matrix formation  ***
  0  -3190.9745005673   0.000000000000 0.10850767  0.00238250  0.1568104 0.7000
  1  -3191.0542176789  -0.079717111629 0.07624616  0.00178782  0.0918012 0.7000
                               ***Turning on DIIS***
  2  -3191.0898716751  -0.035653996233 0.13784213  0.00337821  0.0492911 0.0000
  3  -3191.1411545608  -0.051282885628 0.04078576  0.00108183  0.0441276 0.0000
  4  -3191.1538451382  -0.012690577472 0.01905943  0.00035762  0.0109213 0.0000
                      *** Initiating the SOSCF procedure ***
                           *** Shutting down DIIS ***
                      *** Re-Reading the Fockian *** 
                      *** Removing any level shift *** 
ITER      Energy       Delta-E        Grad      Rot      Max-DP    RMS-DP
  5  -3191.15443472  -0.0005895828  0.000615  0.000615  0.002157  0.000092
               *** Restarting incremental Fock matrix formation ***
  6  -3191.15444603  -0.0000113083  0.000302  0.000655  0.001567  0.000064
  7  -3191.15444748  -0.0000014509  0.000250  0.000146  0.000757  0.000016
  8  -3191.15444966  -0.0000021796  0.000050  0.000043  0.000241  0.000005
  9  -3191.15444965   0.0000000079  0.000039  0.000017  0.000097  0.000002
                  ***Gradient check signals convergence***
              ***Rediagonalizing the Fockian in SOSCF/NRSCF***

               *****************************************************
               *                     SUCCESS                       *
               *           SCF CONVERGED AFTER  10 CYCLES          *
               *****************************************************

Setting up the final grid:

General Integration Accuracy     IntAcc      ...  4.670
Radial Grid Type                 RadialGrid  ... Gauss-Chebyshev
Angular Grid (max. acc.)         AngularGrid ... Lebedev-302
Angular grid pruning method      GridPruning ... 3 (G Style)
Weight generation scheme         WeightScheme... Becke
Basis function cutoff            BFCut       ...    1.0000e-11
Integration weight cutoff        WCut        ...    1.0000e-14
Grids for H and He will be reduced by one unit

# of grid points (after initial pruning)     ...  71748 (   0.0 sec)
# of grid points (after weights+screening)   ...  66203 (   0.0 sec)
nearest neighbour list constructed           ...    0.0 sec
Grid point re-assignment to atoms done       ...    0.0 sec
Grid point division into batches done        ...    0.2 sec
Reduced shell lists constructed in    0.3 sec

Total number of grid points                  ...    66203
Total number of batches                      ...     1042
Average number of points per batch           ...       63
Average number of grid points per atom       ...     4414
Average number of shells per batch           ...    52.46 (73.89%)
Average number of basis functions per batch  ...   109.43 (72.47%)
Average number of large shells per batch     ...    42.98 (81.94%)
Average number of large basis fcns per batch ...    87.14 (79.63%)
Maximum spatial batch extension              ...  14.27, 14.49, 15.73 au
Average spatial batch extension              ...   0.42,  0.42,  0.43 au

Final grid set up in    0.3 sec
Final integration                            ... done (   0.1 sec)
Change in XC energy                          ...    -0.000007075
Integrated number of electrons               ...    86.000099816
Previous integrated no of electrons          ...    86.001083095
Old exchange energy                            =    -35.328186720 Eh
New exchange energy                            =    -35.327780276 Eh
Exchange energy change after final integration =      0.000406444 Eh
Total energy after final integration           =  -3191.154050312 Eh
Final COS-X integration done in                =     0.814 sec

----------------
TOTAL SCF ENERGY
----------------

Total Energy       :        -3191.15405031 Eh          -86835.71635 eV

Components:
Nuclear Repulsion  :          455.26698778 Eh           12388.44455 eV
Electronic Energy  :        -3646.42103810 Eh          -99224.16091 eV
One Electron Energy:        -5349.75584830 Eh         -145574.25748 eV
Two Electron Energy:         1703.33481021 Eh           46350.09658 eV
CPCM Dielectric    :           -0.10885899 Eh              -2.96220 eV

Virial components:
Potential Energy   :        -6377.04118934 Eh         -173528.11276 eV
Kinetic Energy     :         3185.88713903 Eh           86692.39641 eV
Virial Ratio       :            2.00165320


DFT components:
N(Alpha)           :       43.000049908177 electrons
N(Beta)            :       43.000049908177 electrons
N(Total)           :       86.000099816354 electrons
E(X)               :     -105.465448477651 Eh       
E(C)               :       -3.487828402987 Eh       
E(XC)              :     -108.953276880638 Eh       
DFET-embed. en.    :        0.000000000000 Eh       
CPCM Solvation Model Properties:
Surface-charge          :            0.97820114
Charge-correction       :           -0.00302090 Eh              -0.08220 eV
Free-energy (cav+disp)  :            0.00400283 Eh               0.10892 eV
Corrected G(solv)       :        -3191.15306838 Eh          -86835.68963 eV

---------------
SCF CONVERGENCE
---------------

  Last Energy change         ...   -2.9202e-08  Tolerance :   1.0000e-08
  Last MAX-Density change    ...    3.3534e-15  Tolerance :   1.0000e-07
  Last RMS-Density change    ...    8.5719e-17  Tolerance :   5.0000e-09
  Last Orbital Gradient      ...    2.4651e-06  Tolerance :   1.0000e-05
  Last Orbital Rotation      ...    5.0392e-06  Tolerance :   1.0000e-05

             **** THE GBW FILE WAS UPDATED (manual_reactants_344_opt.gbw) ****
             **** DENSITY FILE WAS UPDATED (manual_reactants_344_opt.scfp) ****
             **** ENERGY FILE WAS UPDATED (manual_reactants_344_opt.en.tmp) ****
             **** THE GBW FILE WAS UPDATED (manual_reactants_344_opt.gbw) ****
             **** DENSITY FILE WAS UPDATED (manual_reactants_344_opt.scfp) ****
----------------
ORBITAL ENERGIES
----------------

  NO   OCC          E(Eh)            E(eV) 
   0   2.0000    -483.174198    -13147.8384 
   1   2.0000    -101.521950     -2762.5527 
   2   2.0000     -62.610323     -1703.7135 
   3   2.0000     -56.399432     -1534.7066 
   4   2.0000     -56.397236     -1534.6468 
   5   2.0000     -56.397194     -1534.6457 
   6   2.0000     -10.275876      -279.6208 
   7   2.0000     -10.235514      -278.5225 
   8   2.0000     -10.210575      -277.8439 
   9   2.0000     -10.206621      -277.7363 
  10   2.0000      -9.368895      -254.9406 
  11   2.0000      -8.755622      -238.2526 
  12   2.0000      -7.104693      -193.3285 
  13   2.0000      -7.104620      -193.3265 
  14   2.0000      -7.104500      -193.3233 
  15   2.0000      -6.569764      -178.7724 
  16   2.0000      -6.557920      -178.4501 
  17   2.0000      -6.557729      -178.4449 
  18   2.0000      -2.655328       -72.2551 
  19   2.0000      -2.652065       -72.1664 
  20   2.0000      -2.651929       -72.1627 
  21   2.0000      -2.642362       -71.9023 
  22   2.0000      -2.642340       -71.9017 
  23   2.0000      -0.841344       -22.8941 
  24   2.0000      -0.776861       -21.1395 
  25   2.0000      -0.683088       -18.5878 
  26   2.0000      -0.674870       -18.3641 
  27   2.0000      -0.669489       -18.2177 
  28   2.0000      -0.556550       -15.1445 
  29   2.0000      -0.475439       -12.9374 
  30   2.0000      -0.461041       -12.5456 
  31   2.0000      -0.440684       -11.9916 
  32   2.0000      -0.386886       -10.5277 
  33   2.0000      -0.386450       -10.5158 
  34   2.0000      -0.370716       -10.0877 
  35   2.0000      -0.349258        -9.5038 
  36   2.0000      -0.338182        -9.2024 
  37   2.0000      -0.322960        -8.7882 
  38   2.0000      -0.284507        -7.7418 
  39   2.0000      -0.282475        -7.6865 
  40   2.0000      -0.214285        -5.8310 
  41   2.0000      -0.213835        -5.8187 
  42   2.0000      -0.210872        -5.7381 
  43   0.0000       0.022657         0.6165 
  44   0.0000       0.079210         2.1554 
  45   0.0000       0.121210         3.2983 
  46   0.0000       0.122712         3.3392 
  47   0.0000       0.141520         3.8509 
  48   0.0000       0.150399         4.0926 
  49   0.0000       0.152636         4.1534 
  50   0.0000       0.179883         4.8949 
  51   0.0000       0.188390         5.1264 
  52   0.0000       0.209294         5.6952 
  53   0.0000       0.216764         5.8985 
  54   0.0000       0.255897         6.9633 
  55   0.0000       0.261206         7.1078 
  56   0.0000       0.354754         9.6534 
  57   0.0000       0.399704        10.8765 
  58   0.0000       0.420212        11.4345 
  59   0.0000       0.432809        11.7773 
  60   0.0000       0.453229        12.3330 
  61   0.0000       0.475566        12.9408 
  62   0.0000       0.496121        13.5001 
  63   0.0000       0.500562        13.6210 
  64   0.0000       0.550978        14.9929 
  65   0.0000       0.573153        15.5963 
  66   0.0000       0.573922        15.6172 
  67   0.0000       0.594723        16.1832 
  68   0.0000       0.607198        16.5227 
  69   0.0000       0.630308        17.1516 
  70   0.0000       0.631462        17.1830 
  71   0.0000       0.644505        17.5379 
  72   0.0000       0.652513        17.7558 
  73   0.0000       0.669559        18.2196 
  74   0.0000       0.671870        18.2825 
  75   0.0000       0.686703        18.6861 
  76   0.0000       0.708308        19.2740 
  77   0.0000       0.715824        19.4786 
  78   0.0000       0.728475        19.8228 
  79   0.0000       0.734031        19.9740 
  80   0.0000       0.747071        20.3288 
  81   0.0000       0.751487        20.4490 
  82   0.0000       0.769917        20.9505 
  83   0.0000       0.775286        21.0966 
  84   0.0000       0.786416        21.3995 
  85   0.0000       0.853279        23.2189 
  86   0.0000       0.920270        25.0418 
  87   0.0000       0.922157        25.0932 
  88   0.0000       0.924428        25.1550 
  89   0.0000       0.930331        25.3156 
  90   0.0000       0.936265        25.4771 
  91   0.0000       0.947607        25.7857 
  92   0.0000       1.002801        27.2876 
  93   0.0000       1.029110        28.0035 
  94   0.0000       1.070628        29.1333 
  95   0.0000       1.079919        29.3861 
  96   0.0000       1.094503        29.7829 
  97   0.0000       1.108646        30.1678 
  98   0.0000       1.156588        31.4724 
  99   0.0000       1.189783        32.3756 
 100   0.0000       1.205285        32.7975 
 101   0.0000       1.288175        35.0530 
 102   0.0000       1.355586        36.8874 
 103   0.0000       1.452598        39.5272 
 104   0.0000       1.558819        42.4176 
 105   0.0000       1.565604        42.6023 
 106   0.0000       1.586003        43.1573 
 107   0.0000       1.600122        43.5415 
 108   0.0000       1.678293        45.6687 
 109   0.0000       1.744820        47.4790 
 110   0.0000       1.771266        48.1986 
 111   0.0000       1.789943        48.7068 
 112   0.0000       1.809034        49.2263 
 113   0.0000       1.824011        49.6339 
 114   0.0000       1.825677        49.6792 
 115   0.0000       1.857538        50.5462 
 116   0.0000       1.873240        50.9735 
 117   0.0000       1.882773        51.2329 
 118   0.0000       1.885019        51.2940 
 119   0.0000       1.943397        52.8825 
 120   0.0000       1.961378        53.3718 
 121   0.0000       1.976827        53.7922 
 122   0.0000       1.991984        54.2046 
 123   0.0000       2.071730        56.3746 
 124   0.0000       2.091722        56.9187 
 125   0.0000       2.148824        58.4725 
 126   0.0000       2.279917        62.0397 
 127   0.0000       2.286536        62.2198 
 128   0.0000       2.306516        62.7635 
 129   0.0000       2.363658        64.3184 
 130   0.0000       2.409658        65.5701 
 131   0.0000       2.440155        66.4000 
 132   0.0000       2.491023        67.7842 
 133   0.0000       2.598550        70.7102 
 134   0.0000       2.603136        70.8349 
 135   0.0000       2.662111        72.4397 
 136   0.0000       2.671787        72.7030 
 137   0.0000       2.753957        74.9390 
 138   0.0000       2.874904        78.2301 
 139   0.0000       2.902908        78.9921 
 140   0.0000       2.930542        79.7441 
 141   0.0000       2.959395        80.5292 
 142   0.0000       2.971872        80.8687 
 143   0.0000       3.049532        82.9820 
 144   0.0000       3.080806        83.8330 
 145   0.0000       3.102396        84.4205 
 146   0.0000       3.491197        95.0003 
 147   0.0000       3.498714        95.2048 
 148   0.0000       3.593426        97.7821 
 149   0.0000       3.595347        97.8344 
 150   0.0000       3.818239       103.8996 

                    ********************************
                    * MULLIKEN POPULATION ANALYSIS *
                    ********************************

-----------------------
MULLIKEN ATOMIC CHARGES
-----------------------
   0 C :   -0.047848
   1 C :   -0.195080
   2 C :   -0.049955
   3 C :   -0.049704
   4 Br:   -0.216155
   5 H :    0.013970
   6 H :    0.032848
   7 H :    0.033903
   8 H :    0.053970
   9 H :    0.036311
  10 H :    0.035769
  11 H :    0.021398
  12 H :    0.099973
  13 H :    0.101747
  14 Cl:   -0.871147
Sum of atomic charges:   -1.0000000

--------------------------------
MULLIKEN REDUCED ORBITAL CHARGES
--------------------------------
  0 C s       :     3.022733  s :     3.022733
      pz      :     0.991533  p :     2.998486
      px      :     1.015261
      py      :     0.991692
      dz2     :     0.003934  d :     0.026629
      dxz     :     0.007820
      dyz     :     0.005524
      dx2y2   :     0.001837
      dxy     :     0.007515
  1 C s       :     3.135877  s :     3.135877
      pz      :     0.991269  p :     3.013301
      px      :     0.989236
      py      :     1.032796
      dz2     :     0.008043  d :     0.045902
      dxz     :     0.012281
      dyz     :     0.009437
      dx2y2   :     0.005767
      dxy     :     0.010374
  2 C s       :     3.031832  s :     3.031832
      pz      :     1.017284  p :     2.991220
      px      :     1.002350
      py      :     0.971586
      dz2     :     0.002594  d :     0.026902
      dxz     :     0.007143
      dyz     :     0.006385
      dx2y2   :     0.003462
      dxy     :     0.007318
  3 C s       :     3.132419  s :     3.132419
      pz      :     1.036392  p :     2.881468
      px      :     0.894061
      py      :     0.951015
      dz2     :     0.006840  d :     0.035817
      dxz     :     0.008203
      dyz     :     0.006057
      dx2y2   :     0.004572
      dxy     :     0.010146
  4 Brs       :     7.971822  s :     7.971822
      pz      :     5.933136  p :    17.202011
      px      :     5.574327
      py      :     5.694548
      dz2     :     2.005631  d :    10.042323
      dxz     :     2.007037
      dyz     :     2.004542
      dx2y2   :     2.008807
      dxy     :     2.016305
  5 H s       :     0.959943  s :     0.959943
      pz      :     0.008096  p :     0.026087
      px      :     0.012364
      py      :     0.005627
  6 H s       :     0.943231  s :     0.943231
      pz      :     0.006501  p :     0.023921
      px      :     0.008543
      py      :     0.008877
  7 H s       :     0.942580  s :     0.942580
      pz      :     0.004765  p :     0.023517
      px      :     0.007903
      py      :     0.010849
  8 H s       :     0.924198  s :     0.924198
      pz      :     0.005076  p :     0.021831
      px      :     0.008294
      py      :     0.008461
  9 H s       :     0.940161  s :     0.940161
      pz      :     0.010819  p :     0.023527
      px      :     0.006491
      py      :     0.006218
 10 H s       :     0.940270  s :     0.940270
      pz      :     0.007123  p :     0.023961
      px      :     0.008025
      py      :     0.008812
 11 H s       :     0.953924  s :     0.953924
      pz      :     0.009044  p :     0.024678
      px      :     0.009971
      py      :     0.005663
 12 H s       :     0.877227  s :     0.877227
      pz      :     0.010889  p :     0.022800
      px      :     0.005913
      py      :     0.005998
 13 H s       :     0.875503  s :     0.875503
      pz      :     0.004831  p :     0.022750
      px      :     0.005944
      py      :     0.011975
 14 Cls       :     5.992834  s :     5.992834
      pz      :     3.983404  p :    11.878114
      px      :     3.931442
      py      :     3.963268
      dz2     :     0.000034  d :     0.000199
      dxz     :     0.000027
      dyz     :     0.000019
      dx2y2   :     0.000092
      dxy     :     0.000027


                     *******************************
                     * LOEWDIN POPULATION ANALYSIS *
                     *******************************

----------------------
LOEWDIN ATOMIC CHARGES
----------------------
   0 C :   -0.080658
   1 C :   -0.068262
   2 C :   -0.075073
   3 C :   -0.068680
   4 Br:   -0.041788
   5 H :    0.005057
   6 H :    0.018397
   7 H :    0.024661
   8 H :    0.042170
   9 H :    0.026176
  10 H :    0.021137
  11 H :    0.013990
  12 H :    0.038347
  13 H :    0.038731
  14 Cl:   -0.894206

-------------------------------
LOEWDIN REDUCED ORBITAL CHARGES
-------------------------------
  0 C s       :     2.847313  s :     2.847313
      pz      :     1.044286  p :     3.163709
      px      :     1.065593
      py      :     1.053830
      dz2     :     0.010089  d :     0.069636
      dxz     :     0.020386
      dyz     :     0.014979
      dx2y2   :     0.004266
      dxy     :     0.019916
  1 C s       :     2.844812  s :     2.844812
      pz      :     1.031488  p :     3.115115
      px      :     1.034745
      py      :     1.048882
      dz2     :     0.018179  d :     0.108335
      dxz     :     0.031298
      dyz     :     0.021335
      dx2y2   :     0.011882
      dxy     :     0.025641
  2 C s       :     2.846809  s :     2.846809
      pz      :     1.066599  p :     3.158178
      px      :     1.059016
      py      :     1.032563
      dz2     :     0.006907  d :     0.070085
      dxz     :     0.018941
      dyz     :     0.016219
      dx2y2   :     0.007807
      dxy     :     0.020211
  3 C s       :     2.916696  s :     2.916696
      pz      :     1.072971  p :     3.067476
      px      :     0.979767
      py      :     1.014738
      dz2     :     0.015274  d :     0.084508
      dxz     :     0.021655
      dyz     :     0.013870
      dx2y2   :     0.010469
      dxy     :     0.023239
  4 Brs       :     7.828444  s :     7.828444
      pz      :     5.912998  p :    17.160291
      px      :     5.563855
      py      :     5.683438
      dz2     :     2.007880  d :    10.053053
      dxz     :     2.008278
      dyz     :     2.005468
      dx2y2   :     2.009810
      dxy     :     2.021616
  5 H s       :     0.919735  s :     0.919735
      pz      :     0.025548  p :     0.075209
      px      :     0.034470
      py      :     0.015190
  6 H s       :     0.914098  s :     0.914098
      pz      :     0.019737  p :     0.067505
      px      :     0.023175
      py      :     0.024594
  7 H s       :     0.909038  s :     0.909038
      pz      :     0.014627  p :     0.066301
      px      :     0.021429
      py      :     0.030245
  8 H s       :     0.890336  s :     0.890336
      pz      :     0.016397  p :     0.067494
      px      :     0.025253
      py      :     0.025845
  9 H s       :     0.907803  s :     0.907803
      pz      :     0.029995  p :     0.066021
      px      :     0.018018
      py      :     0.018009
 10 H s       :     0.911710  s :     0.911710
      pz      :     0.018881  p :     0.067153
      px      :     0.022579
      py      :     0.025693
 11 H s       :     0.915497  s :     0.915497
      pz      :     0.025367  p :     0.070513
      px      :     0.028953
      py      :     0.016193
 12 H s       :     0.890741  s :     0.890741
      pz      :     0.034369  p :     0.070912
      px      :     0.019144
      py      :     0.017399
 13 H s       :     0.890309  s :     0.890309
      pz      :     0.016000  p :     0.070960
      px      :     0.018406
      py      :     0.036553
 14 Cls       :     5.990945  s :     5.990945
      pz      :     3.985872  p :    11.903047
      px      :     3.944708
      py      :     3.972467
      dz2     :     0.000039  d :     0.000214
      dxz     :     0.000024
      dyz     :     0.000021
      dx2y2   :     0.000103
      dxy     :     0.000027


                      *****************************
                      * MAYER POPULATION ANALYSIS *
                      *****************************

  NA   - Mulliken gross atomic population
  ZA   - Total nuclear charge
  QA   - Mulliken gross atomic charge
  VA   - Mayer's total valence
  BVA  - Mayer's bonded valence
  FA   - Mayer's free valence

  ATOM       NA         ZA         QA         VA         BVA        FA
  0 C      6.0478     6.0000    -0.0478     3.8762     3.8762     0.0000
  1 C      6.1951     6.0000    -0.1951     4.1268     4.1268     0.0000
  2 C      6.0500     6.0000    -0.0500     3.8934     3.8934    -0.0000
  3 C      6.0497     6.0000    -0.0497     3.8795     3.8795     0.0000
  4 Br    35.2162    35.0000    -0.2162     1.0281     1.0281    -0.0000
  5 H      0.9860     1.0000     0.0140     1.1020     1.1020     0.0000
  6 H      0.9672     1.0000     0.0328     1.0023     1.0023    -0.0000
  7 H      0.9661     1.0000     0.0339     0.9863     0.9863    -0.0000
  8 H      0.9460     1.0000     0.0540     0.9804     0.9804     0.0000
  9 H      0.9637     1.0000     0.0363     0.9866     0.9866    -0.0000
 10 H      0.9642     1.0000     0.0358     1.0021     1.0021    -0.0000
 11 H      0.9786     1.0000     0.0214     1.0695     1.0695    -0.0000
 12 H      0.9000     1.0000     0.1000     0.9718     0.9718    -0.0000
 13 H      0.8983     1.0000     0.1017     0.9703     0.9703    -0.0000
 14 Cl    17.8711    17.0000    -0.8711     0.2511     0.2511     0.0000

  Mayer bond orders larger than 0.100000
B(  0-C ,  1-C ) :   1.0574 B(  0-C ,  5-H ) :   0.9340 B(  0-C ,  6-H ) :   0.9609 
B(  0-C ,  7-H ) :   0.9663 B(  1-C ,  2-C ) :   1.0531 B(  1-C ,  3-C ) :   1.0483 
B(  1-C ,  8-H ) :   0.9079 B(  2-C ,  9-H ) :   0.9667 B(  2-C , 10-H ) :   0.9651 
B(  2-C , 11-H ) :   0.9494 B(  3-C ,  4-Br) :   0.9603 B(  3-C , 12-H ) :   0.9476 
B(  3-C , 13-H ) :   0.9470 B(  5-H , 14-Cl) :   0.1513 B( 11-H , 14-Cl) :   0.1073 



------------------
HIRSHFELD ANALYSIS
------------------

Total integrated alpha density =     43.000541547
Total integrated beta density  =     43.000541547

  ATOM     CHARGE      SPIN    
   0 C   -0.092530    0.000000
   1 C   -0.003593    0.000000
   2 C   -0.085895    0.000000
   3 C    0.012061    0.000000
   4 Br  -0.152870    0.000000
   5 H    0.002368    0.000000
   6 H    0.011518    0.000000
   7 H    0.020926    0.000000
   8 H    0.032999    0.000000
   9 H    0.022901    0.000000
  10 H    0.014825    0.000000
  11 H    0.010940    0.000000
  12 H    0.044666    0.000000
  13 H    0.045020    0.000000
  14 Cl  -0.884418    0.000000

  TOTAL  -1.001083    0.000000

-------
TIMINGS
-------

Total SCF time: 0 days 0 hours 0 min 9 sec 

Total time                  ....       9.834 sec
Sum of individual times     ....       9.682 sec  ( 98.5%)

Fock matrix formation       ....       8.868 sec  ( 90.2%)
  Split-RI-J                ....       1.254 sec  ( 14.1% of F)
  Chain of spheres X        ....       5.011 sec  ( 56.5% of F)
  XC integration            ....       0.449 sec  (  5.1% of F)
    Basis function eval.    ....       0.176 sec  ( 39.1% of XC)
    Density eval.           ....       0.079 sec  ( 17.7% of XC)
    XC-Functional eval.     ....       0.036 sec  (  8.1% of XC)
    XC-Potential eval.      ....       0.126 sec  ( 28.1% of XC)
Diagonalization             ....       0.013 sec  (  0.1%)
Density matrix formation    ....       0.003 sec  (  0.0%)
Population analysis         ....       0.034 sec  (  0.3%)
Initial guess               ....       0.150 sec  (  1.5%)
Orbital Transformation      ....       0.000 sec  (  0.0%)
Orbital Orthonormalization  ....       0.000 sec  (  0.0%)
DIIS solution               ....       0.003 sec  (  0.0%)
SOSCF solution              ....       0.006 sec  (  0.1%)
Grid generation             ....       0.604 sec  (  6.1%)


-------------------------------------------------------------------------------
                          DFT DISPERSION CORRECTION                            
                                                                               
                              DFTD3 V3.1  Rev 1                                
                          USING Becke-Johnson damping                          
-------------------------------------------------------------------------------
The PBE0 functional is recognized
Active option DFTDOPT                   ...         4   

molecular C6(AA) [au] = 3073.796785 


            DFT-D V3
 parameters
 s6 scaling factor         :     1.0000 
 a1 scaling factor         :     0.4145 
 s8 scaling factor         :     1.2177 
 a2 scaling factor         :     4.8593 
 ad hoc parameters k1-k3   :    16.0000     1.3333    -4.0000 

 Edisp/kcal,au: -7.671174684437  -0.012224793701 
 E6   /kcal   :  -4.734412216 
 E8   /kcal   :  -2.936762469 
 % E8         :  38.283086875 

-------------------------   ----------------
Dispersion correction           -0.012224794
-------------------------   ----------------


-------------------------   --------------------
FINAL SINGLE POINT ENERGY     -3191.166275105315
-------------------------   --------------------

[1631720670.374868] [comp0813:212443:0]            sys.c:618  UCX  ERROR shmget(size=2097152 flags=0xfb0) for mm_recv_desc failed: Operation not permitted, please check shared memory limits by 'ipcs -l'
[1631720670.375143] [comp0813:212441:0]            sys.c:618  UCX  ERROR shmget(size=2097152 flags=0xfb0) for mm_recv_desc failed: Operation not permitted, please check shared memory limits by 'ipcs -l'
[1631720670.389232] [comp0813:212444:0]            sys.c:618  UCX  ERROR shmget(size=2097152 flags=0xfb0) for mm_recv_desc failed: Operation not permitted, please check shared memory limits by 'ipcs -l'
[1631720670.391962] [comp0813:212442:0]            sys.c:618  UCX  ERROR shmget(size=2097152 flags=0xfb0) for mm_recv_desc failed: Operation not permitted, please check shared memory limits by 'ipcs -l'
[1631720670.410589] [comp0813:212442:0]            sys.c:618  UCX  ERROR shmget(size=2097152 flags=0xb80) for ucp_am_bufs failed: Operation not permitted, please check shared memory limits by 'ipcs -l'
[1631720670.410620] [comp0813:212444:0]            sys.c:618  UCX  ERROR shmget(size=2097152 flags=0xb80) for ucp_am_bufs failed: Operation not permitted, please check shared memory limits by 'ipcs -l'
[1631720670.411197] [comp0813:212443:0]            sys.c:618  UCX  ERROR shmget(size=2097152 flags=0xb80) for ucp_am_bufs failed: Operation not permitted, please check shared memory limits by 'ipcs -l'
[1631720670.411247] [comp0813:212441:0]            sys.c:618  UCX  ERROR shmget(size=2097152 flags=0xb80) for ucp_am_bufs failed: Operation not permitted, please check shared memory limits by 'ipcs -l'


           ************************************************************
           *        Program running with 4 parallel MPI-processes     *
           *              working on a common directory               *
           ************************************************************
------------------------------------------------------------------------------
                         ORCA SCF GRADIENT CALCULATION
------------------------------------------------------------------------------

Gradient of the Kohn-Sham DFT energy:
Kohn-Sham wavefunction type      ... RKS
Hartree-Fock exchange scaling    ...    0.250
Number of operators              ...    1
Number of atoms                  ...   15
Basis set dimensions             ...  151
Integral neglect threshold       ... 2.5e-11
Integral primitive cutoff        ... 2.5e-12

Nuclear repulsion gradient       ... done
One Electron Gradient            ... done
Pre-screening matrix             ... done
RI-J gradient                    ... done
COSX-gradient                    ... done
Exchange-correlation gradient    ... done
Dispersion correction            ... done

------------------
CARTESIAN GRADIENT
------------------

   1   C   :   -0.000390786   -0.000284138   -0.000269536
   2   C   :   -0.000479259    0.000215658   -0.000441225
   3   C   :   -0.000098727    0.000440023   -0.000549127
   4   C   :   -0.000187581    0.000123282   -0.000008573
   5   Br  :    0.000201636   -0.000037218    0.000097745
   6   H   :   -0.000462283    0.000160247    0.000153030
   7   H   :    0.000276672   -0.000066762    0.000144449
   8   H   :    0.000263844    0.000061354    0.000070465
   9   H   :    0.000102318   -0.000115660   -0.000293058
  10   H   :    0.000047259   -0.000044847    0.000098309
  11   H   :    0.000183707    0.000000440    0.000137186
  12   H   :    0.000116211    0.000797123   -0.000327813
  13   H   :    0.000112384    0.000085485    0.000026411
  14   H   :    0.000028424   -0.000021020    0.000097219
  15   Cl  :    0.001646793   -0.001062058    0.000915010

Difference to translation invariance:
           :    0.0013606102    0.0002519087   -0.0001495072

Norm of the cartesian gradient     ...    0.0027327662
RMS gradient                       ...    0.0004073767
MAX gradient                       ...    0.0016467933

-------
TIMINGS
-------

Total SCF gradient time            ...        2.272 sec

One electron gradient       ....       0.027 sec  (  1.2%)
Prescreening matrices       ....       0.091 sec  (  4.0%)
RI-J Coulomb gradient       ....       0.238 sec  ( 10.5%)
COSX gradient               ....       0.833 sec  ( 36.6%)
XC gradient                 ....       0.517 sec  ( 22.7%)
CPCM gradient               ....       0.284 sec  ( 12.5%)
   A-Matrix (El+Nuc)        ....       0.012 sec  (  0.5%)
   Potential                ....       0.272 sec  ( 12.0%)
------------------------------------------------------------------------------
                         ORCA GEOMETRY RELAXATION STEP
------------------------------------------------------------------------------

Reading the OPT-File                    .... done
Getting information on internals        .... done
Copying old internal coords+grads       .... done
Making the new internal coordinates     .... (new redundants).... done
Validating the new internal coordinates .... (new redundants).... done
Calculating the B-matrix                .... done
Calculating the G,G- and P matrices     .... done
Transforming gradient to internals      .... done
Projecting the internal gradient        .... done
Number of atoms                         ....  15
Number of internal coordinates          ....  77
Current Energy                          .... -3191.166275105 Eh
Current gradient norm                   ....     0.002732766 Eh/bohr
Maximum allowed component of the step   ....  0.300
Current trust radius                    ....  0.300
Evaluating the initial hessian          ....  (Almloef) done
Projecting the Hessian                  .... done
Forming the augmented Hessian           .... done
Diagonalizing the augmented Hessian     .... done
Last element of RFO vector              ....  0.921841917
Lowest eigenvalues of augmented Hessian:
 -0.000688663  0.003690471  0.010904286  0.012233065  0.017457751
Length of the computed step             ....  0.420425770
Warning: the length of the step is outside the trust region - taking restricted step instead
The input lambda is                     ....    -0.000689
   iter:   1  x=   -0.001610  g=   94.197631 f(x)=     0.086758
   iter:   2  x=   -0.002104  g=   48.622921 f(x)=     0.024051
   iter:   3  x=   -0.002198  g=   35.925796 f(x)=     0.003352
   iter:   4  x=   -0.002200  g=   34.044601 f(x)=     0.000089
   iter:   5  x=   -0.002200  g=   33.993916 f(x)=     0.000000
   iter:   6  x=   -0.002200  g=   33.993878 f(x)=     0.000000
The output lambda is                    ....    -0.002200 (6 iterations)
The final length of the internal step   ....  0.300000000
Converting the step to cartesian space:
 Initial RMS(Int)=    0.0341881729
Transforming coordinates:
 Iter   0:  RMS(Cart)=    0.0330944103 RMS(Int)=    0.0340922505
 Iter   1:  RMS(Cart)=    0.0002762931 RMS(Int)=    0.0001939836
 Iter   2:  RMS(Cart)=    0.0000035261 RMS(Int)=    0.0000032129
 Iter   3:  RMS(Cart)=    0.0000000478 RMS(Int)=    0.0000000490
done
Storing new coordinates                 .... done

                                .--------------------.
          ----------------------|Geometry convergence|-------------------------
          Item                value                   Tolerance       Converged
          ---------------------------------------------------------------------
          RMS gradient        0.0002530047            0.0001000000      NO
          MAX gradient        0.0012409688            0.0003000000      NO
          RMS step            0.0341881729            0.0020000000      NO
          MAX step            0.2182827203            0.0040000000      NO
          ........................................................
          Max(Bonds)      0.1155      Max(Angles)    1.63
          Max(Dihed)        0.47      Max(Improp)    0.00
          ---------------------------------------------------------------------

The optimization has not yet converged - more geometry cycles are needed


    ---------------------------------------------------------------------------
                         Redundant Internal Coordinates
                            (Angstroem and degrees)

        Definition                    Value    dE/dq     Step     New-Value
    ----------------------------------------------------------------------------
     1. B(C   1,C   0)                1.5251  0.000384 -0.0015    1.5236   
     2. B(C   2,C   1)                1.5247  0.000367 -0.0015    1.5233   
     3. B(C   3,C   1)                1.5166 -0.000057  0.0001    1.5167   
     4. B(Br  4,C   3)                1.9683 -0.000146  0.0003    1.9686   
     5. B(H   5,C   0)                1.1019  0.000617 -0.0012    1.1007   
     6. B(H   6,C   0)                1.1024 -0.000068  0.0001    1.1025   
     7. B(H   7,C   0)                1.1015 -0.000134  0.0002    1.1017   
     8. B(H   8,C   1)                1.1079  0.000211 -0.0003    1.1076   
     9. B(H   9,C   2)                1.1020 -0.000153  0.0002    1.1022   
    10. B(H  10,C   2)                1.1022  0.000011 -0.0000    1.1022   
    11. B(H  11,C   2)                1.1004  0.000639 -0.0008    1.0996   
    12. B(H  12,C   3)                1.0980  0.000061 -0.0001    1.0979   
    13. B(H  13,C   3)                1.0975  0.000020 -0.0000    1.0975   
    14. B(Cl 14,H  11)                2.9660  0.001241 -0.1155    2.8505   
    15. B(Cl 14,H   5)                2.6800  0.001082 -0.1069    2.5731   
    16. A(C   1,C   0,H   6)          110.83  0.000080    0.06    110.89   
    17. A(C   1,C   0,H   5)          108.94  0.000141   -0.40    108.54   
    18. A(C   1,C   0,H   7)          111.46 -0.000037    0.09    111.55   
    19. A(H   5,C   0,H   6)          108.96 -0.000296    0.09    109.05   
    20. A(H   5,C   0,H   7)          108.71  0.000065    0.14    108.85   
    21. A(H   6,C   0,H   7)          107.88  0.000037    0.03    107.91   
    22. A(C   0,C   1,C   2)          111.46 -0.000171   -0.29    111.17   
    23. A(C   3,C   1,H   8)          103.39 -0.000057    0.06    103.45   
    24. A(C   0,C   1,H   8)          107.14 -0.000044   -0.03    107.11   
    25. A(C   2,C   1,H   8)          107.03  0.000032   -0.05    106.97   
    26. A(C   0,C   1,C   3)          113.50  0.000229    0.13    113.63   
    27. A(C   2,C   1,C   3)          113.57  0.000007    0.19    113.76   
    28. A(C   1,C   2,H  10)          111.10  0.000099    0.03    111.13   
    29. A(C   1,C   2,H   9)          111.85 -0.000041    0.08    111.93   
    30. A(H   9,C   2,H  11)          108.62  0.000055    0.11    108.73   
    31. A(C   1,C   2,H  11)          108.78  0.000119   -0.32    108.46   
    32. A(H   9,C   2,H  10)          108.01  0.000026    0.02    108.04   
    33. A(H  10,C   2,H  11)          108.39 -0.000269    0.08    108.47   
    34. A(H  12,C   3,H  13)          109.56  0.000104   -0.03    109.53   
    35. A(Br  4,C   3,H  13)          104.46  0.000098   -0.02    104.44   
    36. A(C   1,C   3,H  13)          112.03 -0.000021   -0.00    112.03   
    37. A(Br  4,C   3,H  12)          104.44  0.000080   -0.00    104.44   
    38. A(C   1,C   3,H  12)          111.98 -0.000119    0.03    112.01   
    39. A(C   1,C   3,Br  4)          113.84 -0.000115    0.02    113.86   
    40. A(C   0,H   5,Cl 14)          150.64  0.000289   -0.49    150.15   
    41. A(C   2,H  11,Cl 14)          141.93  0.000233   -0.30    141.63   
    42. A(H   5,Cl 14,H  11)           53.14 -0.000205    1.63     54.77   
    43. D(C   3,C   1,C   0,H   7)     48.96  0.000068    0.35     49.31   
    44. D(H   8,C   1,C   0,H   6)    175.32 -0.000032    0.09    175.41   
    45. D(C   2,C   1,C   0,H   6)     58.54  0.000049    0.33     58.87   
    46. D(H   8,C   1,C   0,H   5)     55.44  0.000194    0.20     55.64   
    47. D(C   2,C   1,C   0,H   5)    -61.33  0.000275    0.43    -60.90   
    48. D(C   3,C   1,C   0,H   6)    -71.21 -0.000008    0.21    -71.00   
    49. D(H   8,C   1,C   0,H   7)    -64.52  0.000044    0.23    -64.28   
    50. D(C   3,C   1,C   0,H   5)    168.92  0.000218    0.31    169.23   
    51. D(C   2,C   1,C   0,H   7)    178.71  0.000125    0.47    179.18   
    52. D(H  10,C   2,C   1,C   3)     71.01  0.000076   -0.13     70.88   
    53. D(H   9,C   2,C   1,H   8)     63.67 -0.000045   -0.10     63.56   
    54. D(H   9,C   2,C   1,C   3)    -49.78  0.000001   -0.24    -50.02   
    55. D(H   9,C   2,C   1,C   0)   -179.49 -0.000172   -0.33   -179.82   
    56. D(H  10,C   2,C   1,H   8)   -175.55  0.000030    0.00   -175.54   
    57. D(H  11,C   2,C   1,H   8)    -56.32 -0.000166   -0.08    -56.40   
    58. D(H  11,C   2,C   1,C   3)   -169.76 -0.000119   -0.22   -169.98   
    59. D(H  11,C   2,C   1,C   0)     60.53 -0.000293   -0.30     60.22   
    60. D(H  10,C   2,C   1,C   0)    -58.70 -0.000097   -0.22    -58.92   
    61. D(H  13,C   3,C   1,C   2)    174.87  0.000030   -0.01    174.86   
    62. D(H  13,C   3,C   1,C   0)    -56.45  0.000001   -0.13    -56.58   
    63. D(H  12,C   3,C   1,H   8)    -64.30 -0.000008   -0.06    -64.36   
    64. D(H  12,C   3,C   1,C   2)     51.31 -0.000001    0.00     51.32   
    65. D(H  12,C   3,C   1,C   0)    179.99 -0.000029   -0.11    179.87   
    66. D(Br  4,C   3,C   1,H   8)    177.52  0.000054   -0.09    177.43   
[...]
  89   0.0000       0.933368        25.3982 
  90   0.0000       0.936368        25.4799 
  91   0.0000       0.945163        25.7192 
  92   0.0000       1.018383        27.7116 
  93   0.0000       1.031800        28.0767 
  94   0.0000       1.072739        29.1907 
  95   0.0000       1.080883        29.4123 
  96   0.0000       1.085806        29.5463 
  97   0.0000       1.101207        29.9654 
  98   0.0000       1.173694        31.9378 
  99   0.0000       1.187092        32.3024 
 100   0.0000       1.211818        32.9752 
 101   0.0000       1.293827        35.2068 
 102   0.0000       1.360031        37.0083 
 103   0.0000       1.457295        39.6550 
 104   0.0000       1.559459        42.4350 
 105   0.0000       1.566144        42.6169 
 106   0.0000       1.588998        43.2388 
 107   0.0000       1.603861        43.6433 
 108   0.0000       1.682534        45.7841 
 109   0.0000       1.746162        47.5155 
 110   0.0000       1.772627        48.2356 
 111   0.0000       1.802724        49.0546 
 112   0.0000       1.810438        49.2645 
 113   0.0000       1.823669        49.6245 
 114   0.0000       1.826716        49.7075 
 115   0.0000       1.855749        50.4975 
 116   0.0000       1.878008        51.1032 
 117   0.0000       1.885000        51.2935 
 118   0.0000       1.897806        51.6419 
 119   0.0000       1.947407        52.9916 
 120   0.0000       1.968038        53.5530 
 121   0.0000       1.977576        53.8126 
 122   0.0000       1.995873        54.3105 
 123   0.0000       2.078517        56.5593 
 124   0.0000       2.094463        56.9932 
 125   0.0000       2.155993        58.6676 
 126   0.0000       2.277621        61.9772 
 127   0.0000       2.290322        62.3228 
 128   0.0000       2.310080        62.8605 
 129   0.0000       2.362140        64.2771 
 130   0.0000       2.410906        65.6041 
 131   0.0000       2.437044        66.3153 
 132   0.0000       2.493372        67.8481 
 133   0.0000       2.597469        70.6807 
 134   0.0000       2.614949        71.1564 
 135   0.0000       2.670355        72.6640 
 136   0.0000       2.673390        72.7466 
 137   0.0000       2.756593        75.0107 
 138   0.0000       2.873345        78.1877 
 139   0.0000       2.908196        79.1360 
 140   0.0000       2.932440        79.7957 
 141   0.0000       2.961072        80.5749 
 142   0.0000       2.977509        81.0221 
 143   0.0000       3.044337        82.8406 
 144   0.0000       3.078817        83.7789 
 145   0.0000       3.108728        84.5928 
 146   0.0000       3.491671        95.0132 
 147   0.0000       3.499318        95.2213 
 148   0.0000       3.594020        97.7983 
 149   0.0000       3.596083        97.8544 
 150   0.0000       3.818345       103.9025 

                    ********************************
                    * MULLIKEN POPULATION ANALYSIS *
                    ********************************

-----------------------
MULLIKEN ATOMIC CHARGES
-----------------------
   0 C :   -0.048958
   1 C :   -0.179200
   2 C :   -0.050490
   3 C :   -0.049474
   4 Br:   -0.220299
   5 H :    0.014155
   6 H :    0.032041
   7 H :    0.031865
   8 H :    0.040114
   9 H :    0.032197
  10 H :    0.031561
  11 H :    0.018565
  12 H :    0.098505
  13 H :    0.100781
  14 Cl:   -0.851364
Sum of atomic charges:   -1.0000000

--------------------------------
MULLIKEN REDUCED ORBITAL CHARGES
--------------------------------
  0 C s       :     3.024519  s :     3.024519
      pz      :     0.995479  p :     2.997640
      px      :     1.009988
      py      :     0.992173
      dz2     :     0.003935  d :     0.026799
      dxz     :     0.007871
      dyz     :     0.005487
      dx2y2   :     0.001709
      dxy     :     0.007796
  1 C s       :     3.126506  s :     3.126506
      pz      :     0.984307  p :     3.006787
      px      :     0.987297
      py      :     1.035183
      dz2     :     0.008509  d :     0.045906
      dxz     :     0.012205
      dyz     :     0.009027
      dx2y2   :     0.005635
      dxy     :     0.010530
  2 C s       :     3.029912  s :     3.029912
      pz      :     1.020260  p :     2.993686
      px      :     1.002473
      py      :     0.970953
      dz2     :     0.002713  d :     0.026892
      dxz     :     0.007165
      dyz     :     0.006078
      dx2y2   :     0.003408
      dxy     :     0.007527
  3 C s       :     3.131998  s :     3.131998
      pz      :     1.041693  p :     2.881675
      px      :     0.885462
      py      :     0.954520
      dz2     :     0.006932  d :     0.035802
      dxz     :     0.008253
      dyz     :     0.006071
      dx2y2   :     0.004684
      dxy     :     0.009862
  4 Brs       :     7.971621  s :     7.971621
      pz      :     5.944646  p :    17.206736
      px      :     5.553272
      py      :     5.708818
      dz2     :     2.005771  d :    10.041942
      dxz     :     2.006717
      dyz     :     2.003921
      dx2y2   :     2.009097
      dxy     :     2.016436
  5 H s       :     0.959759  s :     0.959759
      pz      :     0.007843  p :     0.026085
      px      :     0.012440
      py      :     0.005802
  6 H s       :     0.944114  s :     0.944114
      pz      :     0.006412  p :     0.023846
      px      :     0.008322
      py      :     0.009111
  7 H s       :     0.944618  s :     0.944618
      pz      :     0.004780  p :     0.023517
      px      :     0.008135
      py      :     0.010602
  8 H s       :     0.937845  s :     0.937845
      pz      :     0.004607  p :     0.022042
      px      :     0.008798
      py      :     0.008637
  9 H s       :     0.944275  s :     0.944275
      pz      :     0.010707  p :     0.023527
      px      :     0.006757
      py      :     0.006064
 10 H s       :     0.944550  s :     0.944550
      pz      :     0.006896  p :     0.023888
      px      :     0.008067
      py      :     0.008925
 11 H s       :     0.956042  s :     0.956042
      pz      :     0.009250  p :     0.025392
      px      :     0.009972
      py      :     0.006170
 12 H s       :     0.878701  s :     0.878701
      pz      :     0.010653  p :     0.022793
      px      :     0.006106
      py      :     0.006035
 13 H s       :     0.876497  s :     0.876497
      pz      :     0.004883  p :     0.022722
      px      :     0.005646
      py      :     0.012192
 14 Cls       :     5.991495  s :     5.991495
      pz      :     3.976694  p :    11.859542
      px      :     3.931217
      py      :     3.951631
      dz2     :     0.000068  d :     0.000326
      dxz     :     0.000028
      dyz     :     0.000030
      dx2y2   :     0.000143
      dxy     :     0.000057


                     *******************************
                     * LOEWDIN POPULATION ANALYSIS *
                     *******************************

----------------------
LOEWDIN ATOMIC CHARGES
----------------------
   0 C :   -0.080562
   1 C :   -0.068439
   2 C :   -0.076824
   3 C :   -0.068144
   4 Br:   -0.046411
   5 H :    0.005413
   6 H :    0.017640
   7 H :    0.023653
   8 H :    0.035309
   9 H :    0.024440
  10 H :    0.019023
  11 H :    0.009927
  12 H :    0.037744
  13 H :    0.038088
  14 Cl:   -0.870858

-------------------------------
LOEWDIN REDUCED ORBITAL CHARGES
-------------------------------
  0 C s       :     2.847193  s :     2.847193
      pz      :     1.046512  p :     3.163410
      px      :     1.062526
      py      :     1.054372
      dz2     :     0.010085  d :     0.069959
      dxz     :     0.020515
      dyz     :     0.014799
      dx2y2   :     0.003853
      dxy     :     0.020706
  1 C s       :     2.843805  s :     2.843805
      pz      :     1.029289  p :     3.116169
      px      :     1.036246
      py      :     1.050634
      dz2     :     0.019520  d :     0.108465
      dxz     :     0.031288
      dyz     :     0.020090
      dx2y2   :     0.011574
      dxy     :     0.025993
  2 C s       :     2.847049  s :     2.847049
      pz      :     1.068677  p :     3.159655
      px      :     1.059744
      py      :     1.031235
      dz2     :     0.007168  d :     0.070119
      dxz     :     0.019130
      dyz     :     0.015457
      dx2y2   :     0.007625
      dxy     :     0.020739
  3 C s       :     2.916995  s :     2.916995
      pz      :     1.076948  p :     3.066640
      px      :     0.972575
      py      :     1.017117
      dz2     :     0.015632  d :     0.084510
      dxz     :     0.021712
      dyz     :     0.013847
      dx2y2   :     0.010788
      dxy     :     0.022531
  4 Brs       :     7.829629  s :     7.829629
      pz      :     5.924049  p :    17.164212
      px      :     5.542777
      py      :     5.697386
      dz2     :     2.008062  d :    10.052569
      dxz     :     2.007887
      dyz     :     2.004718
      dx2y2   :     2.010210
      dxy     :     2.021692
  5 H s       :     0.919330  s :     0.919330
      pz      :     0.024916  p :     0.075257
      px      :     0.034659
      py      :     0.015682
  6 H s       :     0.914992  s :     0.914992
      pz      :     0.019537  p :     0.067368
      px      :     0.022533
      py      :     0.025298
  7 H s       :     0.910177  s :     0.910177
      pz      :     0.014703  p :     0.066170
      px      :     0.021974
      py      :     0.029494
  8 H s       :     0.896127  s :     0.896127
      pz      :     0.015179  p :     0.068564
      px      :     0.026789
      py      :     0.026596
  9 H s       :     0.909682  s :     0.909682
      pz      :     0.029733  p :     0.065877
      px      :     0.018703
      py      :     0.017441
 10 H s       :     0.913875  s :     0.913875
      pz      :     0.018238  p :     0.067102
      px      :     0.022818
      py      :     0.026045
 11 H s       :     0.917343  s :     0.917343
      pz      :     0.026360  p :     0.072730
      px      :     0.029016
      py      :     0.017354
 12 H s       :     0.891435  s :     0.891435
      pz      :     0.033673  p :     0.070822
      px      :     0.019720
      py      :     0.017428
 13 H s       :     0.890996  s :     0.890996
      pz      :     0.016214  p :     0.070916
      px      :     0.017525
      py      :     0.037176
 14 Cls       :     5.987853  s :     5.987853
      pz      :     3.980601  p :    11.882674
      px      :     3.940304
      py      :     3.961769
      dz2     :     0.000076  d :     0.000331
      dxz     :     0.000024
      dyz     :     0.000027
      dx2y2   :     0.000150
      dxy     :     0.000053


                      *****************************
                      * MAYER POPULATION ANALYSIS *
                      *****************************

  NA   - Mulliken gross atomic population
  ZA   - Total nuclear charge
  QA   - Mulliken gross atomic charge
  VA   - Mayer's total valence
  BVA  - Mayer's bonded valence
  FA   - Mayer's free valence

  ATOM       NA         ZA         QA         VA         BVA        FA
  0 C      6.0490     6.0000    -0.0490     3.8827     3.8827    -0.0000
  1 C      6.1792     6.0000    -0.1792     4.1110     4.1110     0.0000
  2 C      6.0505     6.0000    -0.0505     3.8933     3.8933    -0.0000
  3 C      6.0495     6.0000    -0.0495     3.8786     3.8786    -0.0000
  4 Br    35.2203    35.0000    -0.2203     1.0225     1.0225     0.0000
  5 H      0.9858     1.0000     0.0142     1.0938     1.0938    -0.0000
  6 H      0.9680     1.0000     0.0320     1.0012     1.0012     0.0000
  7 H      0.9681     1.0000     0.0319     0.9869     0.9869     0.0000
  8 H      0.9599     1.0000     0.0401     1.0058     1.0058    -0.0000
  9 H      0.9678     1.0000     0.0322     0.9868     0.9868    -0.0000
 10 H      0.9684     1.0000     0.0316     1.0007     1.0007    -0.0000
 11 H      0.9814     1.0000     0.0186     1.0800     1.0800     0.0000
 12 H      0.9015     1.0000     0.0985     0.9725     0.9725    -0.0000
 13 H      0.8992     1.0000     0.1008     0.9700     0.9700     0.0000
 14 Cl    17.8514    17.0000    -0.8514     0.2894     0.2894     0.0000

  Mayer bond orders larger than 0.100000
B(  0-C ,  1-C ) :   1.0554 B(  0-C ,  5-H ) :   0.9363 B(  0-C ,  6-H ) :   0.9614 
B(  0-C ,  7-H ) :   0.9672 B(  1-C ,  2-C ) :   1.0549 B(  1-C ,  3-C ) :   1.0487 
B(  1-C ,  8-H ) :   0.9005 B(  2-C ,  9-H ) :   0.9666 B(  2-C , 10-H ) :   0.9648 
B(  2-C , 11-H ) :   0.9447 B(  3-C ,  4-Br) :   0.9571 B(  3-C , 12-H ) :   0.9481 
B(  3-C , 13-H ) :   0.9468 B(  5-H , 14-Cl) :   0.1429 B( 11-H , 14-Cl) :   0.1239 



------------------
HIRSHFELD ANALYSIS
------------------

Total integrated alpha density =     42.998308830
Total integrated beta density  =     42.998308830

  ATOM     CHARGE      SPIN    
   0 C   -0.093003    0.000000
   1 C   -0.004833    0.000000
   2 C   -0.088475    0.000000
   3 C    0.011889    0.000000
   4 Br  -0.157113    0.000000
   5 H    0.002297    0.000000
   6 H    0.011004    0.000000
   7 H    0.019688    0.000000
   8 H    0.027618    0.000000
   9 H    0.020907    0.000000
  10 H    0.013220    0.000000
  11 H    0.006917    0.000000
  12 H    0.043845    0.000000
  13 H    0.044214    0.000000
  14 Cl  -0.854793    0.000000

  TOTAL  -0.996618    0.000000

-------
TIMINGS
-------

Total SCF time: 0 days 0 hours 0 min 5 sec 

Total time                  ....       5.659 sec
Sum of individual times     ....       5.460 sec  ( 96.5%)

Fock matrix formation       ....       4.791 sec  ( 84.7%)
  Split-RI-J                ....       0.636 sec  ( 13.3% of F)
  Chain of spheres X        ....       2.883 sec  ( 60.2% of F)
  XC integration            ....       0.263 sec  (  5.5% of F)
    Basis function eval.    ....       0.104 sec  ( 39.8% of XC)
    Density eval.           ....       0.047 sec  ( 17.9% of XC)
    XC-Functional eval.     ....       0.022 sec  (  8.2% of XC)
    XC-Potential eval.      ....       0.070 sec  ( 26.6% of XC)
Diagonalization             ....       0.002 sec  (  0.0%)
Density matrix formation    ....       0.002 sec  (  0.0%)
Population analysis         ....       0.034 sec  (  0.6%)
Initial guess               ....       0.010 sec  (  0.2%)
Orbital Transformation      ....       0.000 sec  (  0.0%)
Orbital Orthonormalization  ....       0.005 sec  (  0.1%)
DIIS solution               ....       0.000 sec  (  0.0%)
SOSCF solution              ....       0.005 sec  (  0.1%)
Grid generation             ....       0.616 sec  ( 10.9%)


-------------------------------------------------------------------------------
                          DFT DISPERSION CORRECTION                            
                                                                               
                              DFTD3 V3.1  Rev 1                                
                          USING Becke-Johnson damping                          
-------------------------------------------------------------------------------
The PBE0 functional is recognized
Active option DFTDOPT                   ...         4   

molecular C6(AA) [au] = 3073.719044 


            DFT-D V3
 parameters
 s6 scaling factor         :     1.0000 
 a1 scaling factor         :     0.4145 
 s8 scaling factor         :     1.2177 
 a2 scaling factor         :     4.8593 
 ad hoc parameters k1-k3   :    16.0000     1.3333    -4.0000 

 Edisp/kcal,au: -7.849829814797  -0.012509498744 
 E6   /kcal   :  -4.833421496 
 E8   /kcal   :  -3.016408319 
 % E8         :  38.426416754 

-------------------------   ----------------
Dispersion correction           -0.012509499
-------------------------   ----------------


-------------------------   --------------------
FINAL SINGLE POINT ENERGY     -3191.166202430445
-------------------------   --------------------

                                *** OPTIMIZATION RUN DONE ***

                            ***************************************
                            *     ORCA property calculations      *
                            ***************************************

                                    ---------------------
                                    Active property flags
                                    ---------------------
   (+) Dipole Moment


------------------------------------------------------------------------------
                       ORCA ELECTRIC PROPERTIES CALCULATION
------------------------------------------------------------------------------

Dipole Moment Calculation                       ... on
Quadrupole Moment Calculation                   ... off
Polarizability Calculation                      ... off
GBWName                                         ... manual_reactants_344_opt.gbw
Electron density file                           ... manual_reactants_344_opt.scfp
The origin for moment calculation is the CENTER OF MASS  = (-0.009889, -0.039327 -0.190340)

-------------
DIPOLE MOMENT
-------------
                                X             Y             Z
Electronic contribution:    -21.91826      11.46517     -10.33377
Nuclear contribution   :     17.06198      -8.95274       6.83768
                        -----------------------------------------
Total Dipole Moment    :     -4.85627       2.51243      -3.49609
                        -----------------------------------------
Magnitude (a.u.)       :      6.48986
Magnitude (Debye)      :     16.49592



--------------------
Rotational spectrum 
--------------------
 
Rotational constants in cm-1:     0.186713     0.014995     0.014702 
Rotational constants in MHz :  5597.528109   449.541988   440.761122 

 Dipole components along the rotational axes: 
x,y,z [a.u.] :    -6.450509     0.193690    -0.686840 
x,y,z [Debye]:   -16.395891     0.492320    -1.745809 

 
[1631720909.060448] [comp0813:213756:0]            sys.c:618  UCX  ERROR shmget(size=2097152 flags=0xfb0) for mm_recv_desc failed: Operation not permitted, please check shared memory limits by 'ipcs -l'
[1631720909.064251] [comp0813:213758:0]            sys.c:618  UCX  ERROR shmget(size=2097152 flags=0xfb0) for mm_recv_desc failed: Operation not permitted, please check shared memory limits by 'ipcs -l'
[1631720909.078016] [comp0813:213757:0]            sys.c:618  UCX  ERROR shmget(size=2097152 flags=0xfb0) for mm_recv_desc failed: Operation not permitted, please check shared memory limits by 'ipcs -l'
[1631720909.078257] [comp0813:213759:0]            sys.c:618  UCX  ERROR shmget(size=2097152 flags=0xfb0) for mm_recv_desc failed: Operation not permitted, please check shared memory limits by 'ipcs -l'
[1631720909.099900] [comp0813:213756:0]            sys.c:618  UCX  ERROR shmget(size=2097152 flags=0xb80) for ucp_am_bufs failed: Operation not permitted, please check shared memory limits by 'ipcs -l'
[1631720909.100732] [comp0813:213758:0]            sys.c:618  UCX  ERROR shmget(size=2097152 flags=0xb80) for ucp_am_bufs failed: Operation not permitted, please check shared memory limits by 'ipcs -l'
[1631720909.101413] [comp0813:213759:0]            sys.c:618  UCX  ERROR shmget(size=2097152 flags=0xb80) for ucp_am_bufs failed: Operation not permitted, please check shared memory limits by 'ipcs -l'
[1631720909.110553] [comp0813:213757:0]            sys.c:618  UCX  ERROR shmget(size=2097152 flags=0xb80) for ucp_am_bufs failed: Operation not permitted, please check shared memory limits by 'ipcs -l'

Timings for individual modules:

Sum of individual times         ...      246.658 sec (=   4.111 min)
GTO integral calculation        ...       23.842 sec (=   0.397 min)   9.7 %
SCF iterations                  ...      158.869 sec (=   2.648 min)  64.4 %
SCF Gradient evaluation         ...       61.535 sec (=   1.026 min)  24.9 %
Geometry relaxation             ...        2.413 sec (=   0.040 min)   1.0 %
                             ****ORCA TERMINATED NORMALLY****
TOTAL RUN TIME: 0 days 0 hours 4 minutes 11 seconds 856 msec
