
                                 *****************
                                 * O   R   C   A *
                                 *****************

           --- An Ab Initio, DFT and Semiempirical electronic structure package ---

                  #######################################################
                  #                        -***-                        #
                  #          Department of theory and spectroscopy      #
                  #               Directorship: Frank Neese             #
                  #        Max Planck Institute fuer Kohlenforschung    #
                  #                Kaiser Wilhelm Platz 1               #
                  #                 D-45470 Muelheim/Ruhr               #
                  #                      Germany                        #
                  #                                                     #
                  #                  All rights reserved                #
                  #                        -***-                        #
                  #######################################################


                         Program Version 4.2.1 -  RELEASE  -


 With contributions from (in alphabetic order):
   Daniel Aravena         : Magnetic Suceptibility
   Michael Atanasov       : Ab Initio Ligand Field Theory (pilot matlab implementation)
   Alexander A. Auer      : GIAO ZORA, VPT2
   Ute Becker             : Parallelization
   Giovanni Bistoni       : ED, misc. LED, open-shell LED, HFLD
   Martin Brehm           : Molecular dynamics
   Dmytro Bykov           : SCF Hessian
   Vijay G. Chilkuri      : MRCI spin determinant printing, contributions to CSF-ICE
   Dipayan Datta          : RHF DLPNO-CCSD density
   Achintya Kumar Dutta   : EOM-CC, STEOM-CC
   Dmitry Ganyushin       : Spin-Orbit,Spin-Spin,Magnetic field MRCI
   Miquel Garcia          : C-PCM Hessian, Gaussian charge scheme
   Yang Guo               : DLPNO-NEVPT2, CIM, IAO-localization
   Andreas Hansen         : Spin unrestricted coupled pair/coupled cluster methods
   Benjamin Helmich-Paris : CASSCF linear response (MC-RPA)
   Lee Huntington         : MR-EOM, pCC
   Robert Izsak           : Overlap fitted RIJCOSX, COSX-SCS-MP3, EOM
   Christian Kollmar      : KDIIS, OOCD, Brueckner-CCSD(T), CCSD density
   Simone Kossmann        : Meta GGA functionals, TD-DFT gradient, OOMP2, MP2 Hessian
   Martin Krupicka        : AUTO-CI
   Lucas Lang             : DCDCAS
   Dagmar Lenk            : GEPOL surface, SMD
   Dimitrios Liakos       : Extrapolation schemes; Compound Job, initial MDCI parallelization
   Dimitrios Manganas     : Further ROCIS development; embedding schemes
   Dimitrios Pantazis     : SARC Basis sets
   Taras Petrenko         : DFT Hessian,TD-DFT gradient, ASA, ECA, R-Raman, ABS, FL, XAS/XES, NRVS
   Peter Pinski           : DLPNO-MP2, DLPNO-MP2 Gradient
   Christoph Reimann      : Effective Core Potentials
   Marius Retegan         : Local ZFS, SOC
   Christoph Riplinger    : Optimizer, TS searches, QM/MM, DLPNO-CCSD(T), (RO)-DLPNO pert. Triples
   Tobias Risthaus        : Range-separated hybrids, TD-DFT gradient, RPA, STAB
   Michael Roemelt        : Original ROCIS implementation
   Masaaki Saitow         : Open-shell DLPNO-CCSD energy and density
   Barbara Sandhoefer     : DKH picture change effects
   Avijit Sen             : IP-ROCIS
   Kantharuban Sivalingam : CASSCF convergence, NEVPT2, FIC-MRCI
   Bernardo de Souza      : ESD, SOC TD-DFT
   Georgi Stoychev        : AutoAux, RI-MP2 NMR
   Willem Van den Heuvel  : Paramagnetic NMR
   Boris Wezisla          : Elementary symmetry handling
   Frank Wennmohs         : Technical directorship


 We gratefully acknowledge several colleagues who have allowed us to
 interface, adapt or use parts of their codes:
   Stefan Grimme, W. Hujo, H. Kruse,             : VdW corrections, initial TS optimization,
                  C. Bannwarth                     DFT functionals, gCP, sTDA/sTD-DF
   Ed Valeev, F. Pavosevic, A. Kumar             : LibInt (2-el integral package), F12 methods
   Garnet Chan, S. Sharma, J. Yang, R. Olivares  : DMRG
   Ulf Ekstrom                                   : XCFun DFT Library
   Mihaly Kallay                                 : mrcc  (arbitrary order and MRCC methods)
   Andreas Klamt, Michael Diedenhofen            : otool_cosmo (COSMO solvation model)
   Jiri Pittner, Ondrej Demel                    : Mk-CCSD
   Frank Weinhold                                : gennbo (NPA and NBO analysis)
   Christopher J. Cramer and Donald G. Truhlar   : smd solvation model
   Lars Goerigk                                  : TD-DFT with DH, B97 family of functionals
   V. Asgeirsson, H. Jonsson                     : NEB implementation
   FAccTs GmbH                                   : IRC, NEB, NEB-TS, Multilevel, MM, QM/MM, CI optimization
   S Lehtola, MJT Oliveira, MAL Marques          : LibXC Library


 Your calculation uses the libint2 library for the computation of 2-el integrals
 For citations please refer to: http://libint.valeyev.net

 Your ORCA version has been built with support for libXC version: 4.2.3
 For citations please refer to: https://tddft.org/programs/libxc/

 This ORCA versions uses:
   CBLAS   interface :  Fast vector & matrix operations
   LAPACKE interface :  Fast linear algebra routines
   SCALAPACK package :  Parallel linear algebra routines


Your calculation utilizes the atom-pairwise dispersion correction
with the Becke-Johnson damping scheme (D3BJ)
Cite in your paper:
S.Grimme, S.Ehrlich, L.Goerigk, J Comput Chem, (2011), 32, 1456–1465 
S.Grimme, J.Antony, S.Ehrlich and H.Krieg, J.Chem.Phys., 132, (2010), 154104 
   

----- Orbital basis set information -----
Your calculation utilizes the basis: def2-SVP
   F. Weigend and R. Ahlrichs, Phys. Chem. Chem. Phys. 7, 3297 (2005).

----- AuxJ basis set information -----
Your calculation utilizes the auxiliary basis: def2/J
   F. Weigend, Phys. Chem. Chem. Phys. 8, 1057 (2006).

================================================================================
                                        WARNINGS
                       Please study these warnings very carefully!
================================================================================


WARNING: Geometry Optimization
  ===> : Switching off AutoStart
         For restart on a previous wavefunction, please use MOREAD

INFO   : the flag for use of LIBINT has been found!

================================================================================
                                       INPUT FILE
================================================================================
NAME = manual_reactants_327.inp
|  1> ! Opt PBE0 RIJCOSX D3BJ def2-SVP def2/J CPCM(Acetone)
|  2> %cpcm
|  3> surfacetype vdw_gaussian
|  4> end
|  5> %geom MaxIter 100 end
|  6> %output 
|  7> xyzfile=True 
|  8> end 
|  9> %scf 
| 10> maxiter 250 
| 11> end
| 12> %output
| 13> Print[P_Hirshfeld] = 1
| 14> end
| 15> % maxcore
| 16> 4000
| 17> %pal nprocs 4
| 18> end
| 19> *xyz -1 1
| 20> C    -1.38041  -0.25871  -0.35688
| 21> Br    0.25229   0.29599  -1.25466
| 22> H    -1.74641  -1.16544  -0.85204
| 23> H    -2.10275   0.55843  -0.46082
| 24> H    -1.10501  -0.44195   0.69552
| 25> Br    0.03988  -0.54964   2.96621
| 26> *
| 27> 
| 28>                          ****END OF INPUT****
================================================================================

                       *****************************
                       * Geometry Optimization Run *
                       *****************************

Geometry optimization settings:
Update method            Update   .... BFGS
Choice of coordinates    CoordSys .... Z-matrix Internals
Initial Hessian          InHess   .... Almoef's Model

Convergence Tolerances:
Energy Change            TolE     ....  5.0000e-06 Eh
Max. Gradient            TolMAXG  ....  3.0000e-04 Eh/bohr
RMS Gradient             TolRMSG  ....  1.0000e-04 Eh/bohr
Max. Displacement        TolMAXD  ....  4.0000e-03 bohr
RMS Displacement         TolRMSD  ....  2.0000e-03 bohr
Strict Convergence                ....  False
------------------------------------------------------------------------------
                        ORCA OPTIMIZATION COORDINATE SETUP
------------------------------------------------------------------------------

The optimization will be done in new redundant internal coordinates
Making redundant internal coordinates   ...  (new redundants) done
Evaluating the initial hessian          ...  (Almloef) done
Evaluating the coordinates              ...  done
Calculating the B-matrix                .... done
Calculating the G-matrix                .... done
Diagonalizing the G-matrix              .... done
The first mode is                       ....    3
The number of degrees of freedom        ....   12

    -----------------------------------------------------------------
                    Redundant Internal Coordinates


    -----------------------------------------------------------------
         Definition                    Initial Value    Approx d2E/dq
    -----------------------------------------------------------------
      1. B(Br  1,C   0)                  1.9441         0.274314   
      2. B(H   2,C   0)                  1.0960         0.352201   
      3. B(H   3,C   0)                  1.0956         0.352793   
      4. B(H   4,C   0)                  1.1032         0.343102   
      5. B(Br  5,H   4)                  2.5453         0.005769   
      6. A(Br  1,C   0,H   3)          107.2833         0.325972   
      7. A(Br  1,C   0,H   2)          107.9305         0.325882   
      8. A(Br  1,C   0,H   4)          106.1580         0.324483   
      9. A(H   2,C   0,H   4)          112.1439         0.287643   
     10. A(H   3,C   0,H   4)          112.2713         0.287718   
     11. A(H   2,C   0,H   3)          110.7322         0.288899   
     12. A(C   0,H   4,Br  5)          166.0226         0.176529   
     13. D(Br  5,H   4,C   0,H   2)    132.9604         0.108020   
     14. D(Br  5,H   4,C   0,H   3)   -101.6126         0.108020   
     15. D(Br  5,H   4,C   0,Br  1)     15.3178         0.108020   
    -----------------------------------------------------------------

Number of atoms                         .... 6
Number of degrees of freedom            .... 15

         *************************************************************
         *                GEOMETRY OPTIMIZATION CYCLE   1            *
         *************************************************************
---------------------------------
CARTESIAN COORDINATES (ANGSTROEM)
---------------------------------
  C     -1.380410   -0.258710   -0.356880
  Br     0.252290    0.295990   -1.254660
  H     -1.746410   -1.165440   -0.852040
  H     -2.102750    0.558430   -0.460820
  H     -1.105010   -0.441950    0.695520
  Br     0.039880   -0.549640    2.966210

----------------------------
CARTESIAN COORDINATES (A.U.)
----------------------------
  NO LB      ZA    FRAG     MASS         X           Y           Z
   0 C     6.0000    0    12.011   -2.608597   -0.488891   -0.674405
   1 Br   35.0000    0    79.900    0.476759    0.559340   -2.370964
   2 H     1.0000    0     1.008   -3.300237   -2.202362   -1.610122
   3 H     1.0000    0     1.008   -3.973622    1.055280   -0.870824
   4 H     1.0000    0     1.008   -2.088166   -0.835164    1.314342
   5 Br   35.0000    0    79.900    0.075362   -1.038669    5.605325

--------------------------------
INTERNAL COORDINATES (ANGSTROEM)
--------------------------------
 C      0   0   0     0.000000000000     0.00000000     0.00000000
 Br     1   0   0     1.944070551292     0.00000000     0.00000000
 H      1   2   0     1.096037735892   107.93048920     0.00000000
 H      1   2   3     1.095580384454   107.28329989   240.63670612
 H      1   2   3     1.103162643312   106.15798803   120.41238723
 Br     5   1   2     2.545270776224   166.02257371    15.31781655

---------------------------
INTERNAL COORDINATES (A.U.)
---------------------------
 C      0   0   0     0.000000000000     0.00000000     0.00000000
 Br     1   0   0     3.673760926963     0.00000000     0.00000000
 H      1   2   0     2.071211153280   107.93048920     0.00000000
 H      1   2   3     2.070346884314   107.28329989   240.63670612
 H      1   2   3     2.084675277033   106.15798803   120.41238723
 Br     5   1   2     4.809864703737   166.02257371    15.31781655

---------------------
BASIS SET INFORMATION
---------------------
There are 3 groups of distinct atoms

 Group   1 Type C   : 7s4p1d contracted to 3s2p1d pattern {511/31/1}
 Group   2 Type Br  : 14s10p6d contracted to 5s4p3d pattern {63311/5311/411}
 Group   3 Type H   : 4s1p contracted to 2s1p pattern {31/1}

Atom   0C    basis set group =>   1
Atom   1Br   basis set group =>   2
Atom   2H    basis set group =>   3
Atom   3H    basis set group =>   3
Atom   4H    basis set group =>   3
Atom   5Br   basis set group =>   2
---------------------------------
AUXILIARY/J BASIS SET INFORMATION
---------------------------------
There are 3 groups of distinct atoms

 Group   1 Type C   : 12s5p4d2f1g contracted to 6s4p3d1f1g pattern {711111/2111/211/2/1}
 Group   2 Type Br  : 19s5p5d3f1g contracted to 8s4p3d2f1g pattern {121111111/2111/311/21/1}
 Group   3 Type H   : 5s2p1d contracted to 3s1p1d pattern {311/2/1}

Atom   0C    basis set group =>   1
Atom   1Br   basis set group =>   2
Atom   2H    basis set group =>   3
Atom   3H    basis set group =>   3
Atom   4H    basis set group =>   3
Atom   5Br   basis set group =>   2
[1631282505.857363] [comp0805:33357:0]            sys.c:618  UCX  ERROR shmget(size=2097152 flags=0xfb0) for mm_recv_desc failed: Operation not permitted, please check shared memory limits by 'ipcs -l'
[1631282505.864952] [comp0805:33365:0]            sys.c:618  UCX  ERROR shmget(size=2097152 flags=0xfb0) for mm_recv_desc failed: Operation not permitted, please check shared memory limits by 'ipcs -l'
[1631282505.865513] [comp0805:33362:0]            sys.c:618  UCX  ERROR shmget(size=2097152 flags=0xfb0) for mm_recv_desc failed: Operation not permitted, please check shared memory limits by 'ipcs -l'
[1631282505.866153] [comp0805:33367:0]            sys.c:618  UCX  ERROR shmget(size=2097152 flags=0xfb0) for mm_recv_desc failed: Operation not permitted, please check shared memory limits by 'ipcs -l'
[1631282505.873273] [comp0805:33367:0]            sys.c:618  UCX  ERROR shmget(size=2097152 flags=0xb80) for ucp_am_bufs failed: Operation not permitted, please check shared memory limits by 'ipcs -l'
[1631282505.877463] [comp0805:33365:0]            sys.c:618  UCX  ERROR shmget(size=2097152 flags=0xb80) for ucp_am_bufs failed: Operation not permitted, please check shared memory limits by 'ipcs -l'
[1631282505.878592] [comp0805:33362:0]            sys.c:618  UCX  ERROR shmget(size=2097152 flags=0xb80) for ucp_am_bufs failed: Operation not permitted, please check shared memory limits by 'ipcs -l'
[1631282505.879257] [comp0805:33357:0]            sys.c:618  UCX  ERROR shmget(size=2097152 flags=0xb80) for ucp_am_bufs failed: Operation not permitted, please check shared memory limits by 'ipcs -l'


           ************************************************************
           *        Program running with 4 parallel MPI-processes     *
           *              working on a common directory               *
           ************************************************************
------------------------------------------------------------------------------
                           ORCA GTO INTEGRAL CALCULATION
                           -- RI-GTO INTEGRALS CHOSEN --
------------------------------------------------------------------------------

                         BASIS SET STATISTICS AND STARTUP INFO

Gaussian basis set:
 # of primitive gaussian shells          ...   87
 # of primitive gaussian functions       ...  193
 # of contracted shells                  ...   39
 # of contracted basis functions         ...   93
 Highest angular momentum                ...    2
 Maximum contraction depth               ...    6
Auxiliary gaussian basis set:
 # of primitive gaussian shells          ...  114
 # of primitive gaussian functions       ...  296
 # of contracted shells                  ...   66
 # of contracted aux-basis functions     ...  198
 Highest angular momentum                ...    4
 Maximum contraction depth               ...   12
Ratio of auxiliary to basis functions    ...  2.13
Integral package used                  ... LIBINT
 One Electron integrals                  ... done
 Ordering auxiliary basis shells         ... done
 Integral threshhold             Thresh  ...  2.500e-11
 Primitive cut-off               TCut    ...  2.500e-12
 Pre-screening matrix                    ... done
 Shell pair data                         ... 
 Ordering of the shell pairs             ... done (   0.000 sec) 694 of 780 pairs
 Determination of significant pairs      ... done (   0.000 sec)
 Creation of shell pair data             ... done (   0.000 sec)
 Storage of shell pair data              ... done (   0.023 sec)
 Shell pair data done in (   0.023 sec)
 Computing two index integrals           ... done
 Cholesky decomposition of the V-matrix  ... done


Timings:
 Total evaluation time                   ...   0.390 sec (  0.006 min)
 One electron matrix time                ...   0.023 sec (  0.000 min) =  5.8%
 Schwartz matrix evaluation time         ...   0.113 sec (  0.002 min) = 28.9%
 Two index repulsion integral time       ...   0.001 sec (  0.000 min) =  0.3%
 Cholesky decomposition of V             ...   0.206 sec (  0.003 min) = 52.9%
 Three index repulsion integral time     ...   0.000 sec (  0.000 min) =  0.0%

[1631282507.443544] [comp0805:33451:0]            sys.c:618  UCX  ERROR shmget(size=2097152 flags=0xfb0) for mm_recv_desc failed: Operation not permitted, please check shared memory limits by 'ipcs -l'
[1631282507.444016] [comp0805:33439:0]            sys.c:618  UCX  ERROR shmget(size=2097152 flags=0xfb0) for mm_recv_desc failed: Operation not permitted, please check shared memory limits by 'ipcs -l'
[1631282507.444768] [comp0805:33447:0]            sys.c:618  UCX  ERROR shmget(size=2097152 flags=0xfb0) for mm_recv_desc failed: Operation not permitted, please check shared memory limits by 'ipcs -l'
[1631282507.444979] [comp0805:33443:0]            sys.c:618  UCX  ERROR shmget(size=2097152 flags=0xfb0) for mm_recv_desc failed: Operation not permitted, please check shared memory limits by 'ipcs -l'
[1631282507.453513] [comp0805:33451:0]            sys.c:618  UCX  ERROR shmget(size=2097152 flags=0xb80) for ucp_am_bufs failed: Operation not permitted, please check shared memory limits by 'ipcs -l'
[1631282507.454155] [comp0805:33447:0]            sys.c:618  UCX  ERROR shmget(size=2097152 flags=0xb80) for ucp_am_bufs failed: Operation not permitted, please check shared memory limits by 'ipcs -l'
[1631282507.454155] [comp0805:33439:0]            sys.c:618  UCX  ERROR shmget(size=2097152 flags=0xb80) for ucp_am_bufs failed: Operation not permitted, please check shared memory limits by 'ipcs -l'


           ************************************************************
           *        Program running with 4 parallel MPI-processes     *
           *              working on a common directory               *
           ************************************************************
[1631282507.456913] [comp0805:33443:0]            sys.c:618  UCX  ERROR shmget(size=2097152 flags=0xb80) for ucp_am_bufs failed: Operation not permitted, please check shared memory limits by 'ipcs -l'
-------------------------------------------------------------------------------
                                 ORCA SCF
-------------------------------------------------------------------------------

------------
SCF SETTINGS
------------
Hamiltonian:
 Density Functional     Method          .... DFT(GTOs)
 Exchange Functional    Exchange        .... PBE
   PBE kappa parameter   XKappa         ....  0.804000
   PBE mue parameter    XMuePBE         ....  0.219520
 Correlation Functional Correlation     .... PBE
   PBE beta parameter  CBetaPBE         ....  0.066725
 LDA part of GGA corr.  LDAOpt          .... PW91-LDA
 Gradients option       PostSCFGGA      .... off
 Hybrid DFT is turned on
   Fraction HF Exchange ScalHFX         ....  0.250000
   Scaling of DF-GGA-X  ScalDFX         ....  0.750000
   Scaling of DF-GGA-C  ScalDFC         ....  1.000000
   Scaling of DF-LDA-C  ScalLDAC        ....  1.000000
   Perturbative correction              ....  0.000000
   Density functional embedding theory  .... OFF
   NL short-range parameter             ....  6.900000
 RI-approximation to the Coulomb term is turned on
   Number of auxiliary basis functions  .... 198
   RIJ-COSX (HFX calculated with COS-X)).... on


General Settings:
 Integral files         IntName         .... manual_reactants_327
 Hartree-Fock type      HFTyp           .... RHF
 Total Charge           Charge          ....   -1
 Multiplicity           Mult            ....    1
 Number of Electrons    NEL             ....   80
 Basis Dimension        Dim             ....   93
 Nuclear Repulsion      ENuc            ....    286.0467708283 Eh

Convergence Acceleration:
 DIIS                   CNVDIIS         .... on
   Start iteration      DIISMaxIt       ....    12
   Startup error        DIISStart       ....  0.200000
   # of expansion vecs  DIISMaxEq       ....     5
   Bias factor          DIISBfac        ....   1.050
   Max. coefficient     DIISMaxC        ....  10.000
 Newton-Raphson         CNVNR           .... off
 SOSCF                  CNVSOSCF        .... on
   Start iteration      SOSCFMaxIt      ....   150
   Startup grad/error   SOSCFStart      ....  0.003300
 Level Shifting         CNVShift        .... on
   Level shift para.    LevelShift      ....    0.2500
   Turn off err/grad.   ShiftErr        ....    0.0010
 Zerner damping         CNVZerner       .... off
 Static damping         CNVDamp         .... on
   Fraction old density DampFac         ....    0.7000
   Max. Damping (<1)    DampMax         ....    0.9800
   Min. Damping (>=0)   DampMin         ....    0.0000
   Turn off err/grad.   DampErr         ....    0.1000
 Fernandez-Rico         CNVRico         .... off

SCF Procedure:
 Maximum # iterations   MaxIter         ....   250
 SCF integral mode      SCFMode         .... Direct
   Integral package                     .... LIBINT
 Reset frequency        DirectResetFreq ....    20
 Integral Threshold     Thresh          ....  2.500e-11 Eh
 Primitive CutOff       TCut            ....  2.500e-12 Eh

Convergence Tolerance:
 Convergence Check Mode ConvCheckMode   .... Total+1el-Energy
 Convergence forced     ConvForced      .... 0
 Energy Change          TolE            ....  1.000e-08 Eh
 1-El. energy change                    ....  1.000e-05 Eh
 Orbital Gradient       TolG            ....  1.000e-05
 Orbital Rotation angle TolX            ....  1.000e-05
 DIIS Error             TolErr          ....  5.000e-07


Diagonalization of the overlap matrix:
Smallest eigenvalue                        ... 8.250e-03
Time for diagonalization                   ...    0.003 sec
Threshold for overlap eigenvalues          ... 1.000e-08
Number of eigenvalues below threshold      ... 0
Time for construction of square roots      ...    0.001 sec
Total time needed                          ...    0.004 sec

-------------------
DFT GRID GENERATION
-------------------

General Integration Accuracy     IntAcc      ...  4.340
Radial Grid Type                 RadialGrid  ... Gauss-Chebyshev
Angular Grid (max. acc.)         AngularGrid ... Lebedev-110
Angular grid pruning method      GridPruning ... 3 (G Style)
Weight generation scheme         WeightScheme... Becke
Basis function cutoff            BFCut       ...    1.0000e-11
Integration weight cutoff        WCut        ...    1.0000e-14
Grids for H and He will be reduced by one unit

# of grid points (after initial pruning)     ...   9818 (   0.0 sec)
# of grid points (after weights+screening)   ...   9650 (   0.0 sec)
nearest neighbour list constructed           ...    0.0 sec
Grid point re-assignment to atoms done       ...    0.0 sec
Grid point division into batches done        ...    0.0 sec
Reduced shell lists constructed in    0.0 sec

Total number of grid points                  ...     9650
Total number of batches                      ...      154
Average number of points per batch           ...       62
Average number of grid points per atom       ...     1608
Average number of shells per batch           ...    25.32 (64.94%)
Average number of basis functions per batch  ...    58.98 (63.41%)
Average number of large shells per batch     ...    21.73 (85.78%)
Average number of large basis fcns per batch ...    49.68 (84.23%)
Maximum spatial batch extension              ...  15.17, 18.58, 15.16 au
Average spatial batch extension              ...   1.02,  1.13,  0.97 au

Time for grid setup =    0.060 sec

------------------------------
INITIAL GUESS: MODEL POTENTIAL
------------------------------
Loading Hartree-Fock densities                     ... done
Calculating cut-offs                               ... done
Setting up the integral package                    ... done
Initializing the effective Hamiltonian             ... done
Starting the Coulomb interaction                   ... done (   0.0 sec)
Reading the grid                                   ... done
Mapping shells                                     ... done
Starting the XC term evaluation                    ... done (   0.0 sec)
  promolecular density results
     # of electrons  =     79.000935378
     EX              =   -184.499223647
     EC              =     -3.697366511
     EX+EC           =   -188.196590159
Transforming the Hamiltonian                       ... done (   0.0 sec)
Diagonalizing the Hamiltonian                      ... done (   0.0 sec)
Back transforming the eigenvectors                 ... done (   0.0 sec)
Now organizing SCF variables                       ... done
                      ------------------
                      INITIAL GUESS DONE (   0.2 sec)
                      ------------------
--------------------
COSX GRID GENERATION
--------------------

General Integration Accuracy     IntAcc      ...  3.340
Radial Grid Type                 RadialGrid  ... Gauss-Chebyshev
Angular Grid (max. acc.)         AngularGrid ... Lebedev-50
Angular grid pruning method      GridPruning ... 3 (G Style)
Weight generation scheme         WeightScheme... Becke
Basis function cutoff            BFCut       ...    1.0000e-11
Integration weight cutoff        WCut        ...    1.0000e-14
Grids for H and He will be reduced by one unit

# of grid points (after initial pruning)     ...   3624 (   0.0 sec)
# of grid points (after weights+screening)   ...   3565 (   0.0 sec)
nearest neighbour list constructed           ...    0.0 sec
Grid point re-assignment to atoms done       ...    0.0 sec
Grid point division into batches done        ...    0.0 sec
Reduced shell lists constructed in    0.0 sec

Total number of grid points                  ...     3565
Total number of batches                      ...       58
Average number of points per batch           ...       61
Average number of grid points per atom       ...      594
Average number of shells per batch           ...    26.69 (68.43%)
Average number of basis functions per batch  ...    62.31 (67.00%)
Average number of large shells per batch     ...    23.62 (88.52%)
Average number of large basis fcns per batch ...    54.50 (87.46%)
Maximum spatial batch extension              ...  14.08, 21.12, 14.76 au
Average spatial batch extension              ...   1.40,  1.69,  1.42 au

Overlap Fitting                  UseSFitting ... on
Constructing numerical overlap ... done (      0.0 sec)
Inverting numerical overlap    ... done (      0.0 sec)
Obtaining analytic overlap     ... done (      0.0 sec)
Final contraction and storage  ... done (      0.0 sec)


General Integration Accuracy     IntAcc      ...  3.670
Radial Grid Type                 RadialGrid  ... Gauss-Chebyshev
Angular Grid (max. acc.)         AngularGrid ... Lebedev-50
Angular grid pruning method      GridPruning ... 3 (G Style)
Weight generation scheme         WeightScheme... Becke
Basis function cutoff            BFCut       ...    1.0000e-11
Integration weight cutoff        WCut        ...    1.0000e-14
Grids for H and He will be reduced by one unit

# of grid points (after initial pruning)     ...   4426 (   0.0 sec)
# of grid points (after weights+screening)   ...   4348 (   0.0 sec)
nearest neighbour list constructed           ...    0.0 sec
Grid point re-assignment to atoms done       ...    0.0 sec
Grid point division into batches done        ...    0.0 sec
Reduced shell lists constructed in    0.0 sec

Total number of grid points                  ...     4348
Total number of batches                      ...       70
Average number of points per batch           ...       62
Average number of grid points per atom       ...      725
Average number of shells per batch           ...    26.79 (68.69%)
Average number of basis functions per batch  ...    62.79 (67.52%)
Average number of large shells per batch     ...    23.21 (86.64%)
Average number of large basis fcns per batch ...    53.11 (84.58%)
Maximum spatial batch extension              ...  15.22, 22.48, 15.79 au
Average spatial batch extension              ...   1.26,  1.52,  1.31 au

Overlap Fitting                  UseSFitting ... on
Constructing numerical overlap ... done (      0.0 sec)
Inverting numerical overlap    ... done (      0.0 sec)
Obtaining analytic overlap     ... done (      0.0 sec)
Final contraction and storage  ... done (      0.0 sec)


General Integration Accuracy     IntAcc      ...  4.010
Radial Grid Type                 RadialGrid  ... Gauss-Chebyshev
Angular Grid (max. acc.)         AngularGrid ... Lebedev-110
Angular grid pruning method      GridPruning ... 3 (G Style)
Weight generation scheme         WeightScheme... Becke
Basis function cutoff            BFCut       ...    1.0000e-11
Integration weight cutoff        WCut        ...    1.0000e-14
Grids for H and He will be reduced by one unit

# of grid points (after initial pruning)     ...   8636 (   0.0 sec)
# of grid points (after weights+screening)   ...   8496 (   0.0 sec)
nearest neighbour list constructed           ...    0.0 sec
Grid point re-assignment to atoms done       ...    0.0 sec
Grid point division into batches done        ...    0.0 sec
Reduced shell lists constructed in    0.0 sec

Total number of grid points                  ...     8496
Total number of batches                      ...      136
Average number of points per batch           ...       62
Average number of grid points per atom       ...     1416
Average number of shells per batch           ...    25.34 (64.98%)
Average number of basis functions per batch  ...    59.23 (63.69%)
Average number of large shells per batch     ...    21.60 (85.23%)
Average number of large basis fcns per batch ...    49.49 (83.55%)
Maximum spatial batch extension              ...  14.74, 17.48, 14.27 au
Average spatial batch extension              ...   1.08,  1.17,  1.00 au

Overlap Fitting                  UseSFitting ... on
Constructing numerical overlap ... done (      0.0 sec)
Inverting numerical overlap    ... done (      0.0 sec)
Obtaining analytic overlap     ... done (      0.0 sec)
Final contraction and storage  ... done (      0.0 sec)

Time for X-Grid setup             =    0.123 sec

--------------------
CPCM SOLVATION MODEL
--------------------
CPCM parameters:
  Epsilon                                         ...      20.7000
  Refrac                                          ...       1.3590
  Rsolv                                           ...       1.3000
  Surface type                                    ... GAUSSIAN VDW
  Epsilon function type                           ...         CPCM
Radii:
 Radius for C  used is    3.8550 Bohr (=   2.0400 Ang.)
 Radius for Br used is    4.1952 Bohr (=   2.2200 Ang.)
 Radius for H  used is    2.4944 Bohr (=   1.3200 Ang.)
Calculating surface                               ...        done! (  0.0s)
GEPOL surface points                              ...          434
GEPOL Volume                                      ...     763.4514
GEPOL Surface-area                                ...     491.9317
Calculating surface distance matrix               ...        done! (  0.0s)
Performing Cholesky decomposition & store         ...        done! (  0.0s)
Overall time for CPCM initialization              ...                 0.0s
--------------
SCF ITERATIONS
--------------
ITER       Energy         Delta-E        Max-DP      RMS-DP      [F,P]     Damp
               ***  Starting incremental Fock matrix formation  ***
  0  -5187.0199814803   0.000000000000 0.11211817  0.00269974  0.1236850 0.7000
  1  -5187.0497377786  -0.029756298216 0.08496815  0.00209425  0.0721125 0.7000
                               ***Turning on DIIS***
  2  -5187.0644041820  -0.014666403469 0.16679568  0.00421993  0.0413777 0.0000
  3  -5187.0874955402  -0.023091358151 0.04224983  0.00118111  0.0359470 0.0000
  4  -5187.0914857058  -0.003990165664 0.01545514  0.00037208  0.0067766 0.0000
                      *** Initiating the SOSCF procedure ***
                           *** Shutting down DIIS ***
                      *** Re-Reading the Fockian *** 
                      *** Removing any level shift *** 
ITER      Energy       Delta-E        Grad      Rot      Max-DP    RMS-DP
  5  -5187.09164308  -0.0001573698  0.000556  0.000556  0.000947  0.000048
               *** Restarting incremental Fock matrix formation ***
  6  -5187.09164389  -0.0000008148  0.000243  0.000416  0.001022  0.000042
  7  -5187.09164425  -0.0000003607  0.000183  0.000230  0.000445  0.000014
  8  -5187.09164465  -0.0000004017  0.000036  0.000047  0.000199  0.000006
  9  -5187.09164465   0.0000000014  0.000036  0.000022  0.000099  0.000003
 10  -5187.09164467  -0.0000000186  0.000004  0.000001  0.000003  0.000000
                  ***Gradient check signals convergence***
              ***Rediagonalizing the Fockian in SOSCF/NRSCF***

               *****************************************************
               *                     SUCCESS                       *
               *           SCF CONVERGED AFTER  11 CYCLES          *
               *****************************************************

Setting up the final grid:

General Integration Accuracy     IntAcc      ...  4.670
Radial Grid Type                 RadialGrid  ... Gauss-Chebyshev
Angular Grid (max. acc.)         AngularGrid ... Lebedev-302
Angular grid pruning method      GridPruning ... 3 (G Style)
Weight generation scheme         WeightScheme... Becke
Basis function cutoff            BFCut       ...    1.0000e-11
Integration weight cutoff        WCut        ...    1.0000e-14
Grids for H and He will be reduced by one unit

# of grid points (after initial pruning)     ...  35626 (   0.0 sec)
# of grid points (after weights+screening)   ...  34874 (   0.0 sec)
nearest neighbour list constructed           ...    0.0 sec
Grid point re-assignment to atoms done       ...    0.0 sec
Grid point division into batches done        ...    0.2 sec
Reduced shell lists constructed in    0.2 sec

Total number of grid points                  ...    34874
Total number of batches                      ...      547
Average number of points per batch           ...       63
Average number of grid points per atom       ...     5812
Average number of shells per batch           ...    23.74 (60.87%)
Average number of basis functions per batch  ...    54.99 (59.12%)
Average number of large shells per batch     ...    19.70 (83.00%)
Average number of large basis fcns per batch ...    44.62 (81.14%)
Maximum spatial batch extension              ...  14.94, 16.12, 16.80 au
Average spatial batch extension              ...   0.70,  0.72,  0.70 au

Final grid set up in    0.2 sec
Final integration                            ... done (   0.0 sec)
Change in XC energy                          ...     0.000024332
Integrated number of electrons               ...    79.999995867
Previous integrated no of electrons          ...    79.999653573
Old exchange energy                            =    -46.420346078 Eh
New exchange energy                            =    -46.420156682 Eh
Exchange energy change after final integration =      0.000189396 Eh
Total energy after final integration           =  -5187.091430914 Eh
Final COS-X integration done in                =     0.351 sec

----------------
TOTAL SCF ENERGY
----------------

Total Energy       :        -5187.09143091 Eh         -141147.93366 eV

Components:
Nuclear Repulsion  :          286.04677083 Eh            7783.72835 eV
Electronic Energy  :        -5473.13820174 Eh         -148931.66201 eV
One Electron Energy:        -7806.68842920 Eh         -212430.79193 eV
Two Electron Energy:         2333.55022746 Eh           63499.12992 eV
CPCM Dielectric    :           -0.10425149 Eh              -2.83683 eV

Virial components:
Potential Energy   :       -10368.67206391 Eh         -282145.91088 eV
Kinetic Energy     :         5181.58063300 Eh          140997.97722 eV
Virial Ratio       :            2.00106354


DFT components:
N(Alpha)           :       39.999997933363 electrons
N(Beta)            :       39.999997933363 electrons
N(Total)           :       79.999995866725 electrons
E(X)               :     -138.673968703440 Eh       
E(C)               :       -3.746907819959 Eh       
E(XC)              :     -142.420876523398 Eh       
DFET-embed. en.    :        0.000000000000 Eh       
CPCM Solvation Model Properties:
Surface-charge          :            0.98356404
Charge-correction       :           -0.00231685 Eh              -0.06304 eV
Free-energy (cav+disp)  :            0.00359001 Eh               0.09769 eV
Corrected G(solv)       :        -5187.09015776 Eh         -141147.89901 eV

---------------
SCF CONVERGENCE
---------------

  Last Energy change         ...    2.8816e-08  Tolerance :   1.0000e-08
  Last MAX-Density change    ...    3.9968e-15  Tolerance :   1.0000e-07
  Last RMS-Density change    ...    1.2796e-16  Tolerance :   5.0000e-09
  Last Orbital Gradient      ...    1.6495e-06  Tolerance :   1.0000e-05
  Last Orbital Rotation      ...    4.8682e-07  Tolerance :   1.0000e-05

             **** THE GBW FILE WAS UPDATED (manual_reactants_327.gbw) ****
             **** DENSITY FILE WAS UPDATED (manual_reactants_327.scfp) ****
             **** ENERGY FILE WAS UPDATED (manual_reactants_327.en.tmp) ****
             **** THE GBW FILE WAS UPDATED (manual_reactants_327.gbw) ****
             **** DENSITY FILE WAS UPDATED (manual_reactants_327.scfp) ****
----------------
ORBITAL ENERGIES
----------------

  NO   OCC          E(Eh)            E(eV) 
   0   2.0000    -483.171975    -13147.7779 
   1   2.0000    -483.063513    -13144.8265 
   2   2.0000     -62.608325     -1703.6591 
   3   2.0000     -62.498819     -1700.6793 
   4   2.0000     -56.397545     -1534.6552 
   5   2.0000     -56.395160     -1534.5903 
   6   2.0000     -56.395136     -1534.5897 
   7   2.0000     -56.286766     -1531.6408 
   8   2.0000     -56.286743     -1531.6402 
   9   2.0000     -56.286451     -1531.6322 
  10   2.0000     -10.262020      -279.2438 
  11   2.0000      -8.753717      -238.2008 
  12   2.0000      -8.642324      -235.1696 
  13   2.0000      -6.568280      -178.7320 
  14   2.0000      -6.555758      -178.3912 
  15   2.0000      -6.555641      -178.3881 
  16   2.0000      -6.448980      -175.4857 
  17   2.0000      -6.448483      -175.4721 
  18   2.0000      -6.448434      -175.4708 
  19   2.0000      -2.653780       -72.2130 
  20   2.0000      -2.650345       -72.1196 
  21   2.0000      -2.650203       -72.1157 
  22   2.0000      -2.640061       -71.8397 
  23   2.0000      -2.640055       -71.8396 
  24   2.0000      -2.535728       -69.0007 
  25   2.0000      -2.535669       -68.9991 
  26   2.0000      -2.535623       -68.9978 
  27   2.0000      -2.535241       -68.9874 
  28   2.0000      -2.535235       -68.9873 
  29   2.0000      -0.810301       -22.0494 
  30   2.0000      -0.662553       -18.0290 
  31   2.0000      -0.651212       -17.7204 
  32   2.0000      -0.433622       -11.7995 
  33   2.0000      -0.432637       -11.7727 
  34   2.0000      -0.383939       -10.4475 
  35   2.0000      -0.280649        -7.6368 
  36   2.0000      -0.280161        -7.6236 
  37   2.0000      -0.214711        -5.8426 
  38   2.0000      -0.214333        -5.8323 
  39   2.0000      -0.213571        -5.8116 
  40   0.0000       0.027348         0.7442 
  41   0.0000       0.114240         3.1086 
  42   0.0000       0.150574         4.0973 
  43   0.0000       0.189323         5.1517 
  44   0.0000       0.358617         9.7585 
  45   0.0000       0.390723        10.6321 
  46   0.0000       0.407876        11.0989 
  47   0.0000       0.442696        12.0464 
  48   0.0000       0.448283        12.1984 
  49   0.0000       0.548777        14.9330 
  50   0.0000       0.549320        14.9477 
  51   0.0000       0.602401        16.3922 
  52   0.0000       0.603987        16.4353 
  53   0.0000       0.614206        16.7134 
  54   0.0000       0.631592        17.1865 
  55   0.0000       0.632168        17.2022 
  56   0.0000       0.635099        17.2819 
  57   0.0000       0.635377        17.2895 
  58   0.0000       0.639456        17.4005 
  59   0.0000       0.678556        18.4644 
  60   0.0000       0.679201        18.4820 
  61   0.0000       0.682550        18.5731 
  62   0.0000       0.704095        19.1594 
  63   0.0000       0.719857        19.5883 
  64   0.0000       0.726922        19.7805 
  65   0.0000       0.770728        20.9726 
  66   0.0000       0.798820        21.7370 
  67   0.0000       0.985763        26.8240 
  68   0.0000       1.066963        29.0336 
  69   0.0000       1.255053        34.1517 
  70   0.0000       1.266854        34.4729 
  71   0.0000       1.524642        41.4876 
  72   0.0000       1.732938        47.1556 
  73   0.0000       1.742317        47.4109 
  74   0.0000       1.832833        49.8739 
  75   0.0000       1.981142        53.9096 
  76   0.0000       1.998233        54.3747 
  77   0.0000       2.149635        58.4945 
  78   0.0000       2.414940        65.7139 
  79   0.0000       2.427617        66.0588 
  80   0.0000       2.728975        74.2592 
  81   0.0000       2.905080        79.0512 
  82   0.0000       2.910569        79.2006 
  83   0.0000       3.471736        94.4707 
  84   0.0000       3.473433        94.5169 
  85   0.0000       3.551612        96.6443 
  86   0.0000       3.554102        96.7120 
  87   0.0000       3.562864        96.9505 
  88   0.0000       3.563018        96.9546 
  89   0.0000       3.564031        96.9822 
  90   0.0000       3.566425        97.0474 
  91   0.0000       3.639633        99.0394 
  92   0.0000       3.774825       102.7182 

                    ********************************
                    * MULLIKEN POPULATION ANALYSIS *
                    ********************************

-----------------------
MULLIKEN ATOMIC CHARGES
-----------------------
   0 C :   -0.145668
   1 Br:   -0.233584
   2 H :    0.104842
   3 H :    0.109728
   4 H :    0.085118
   5 Br:   -0.920436
Sum of atomic charges:   -1.0000000

--------------------------------
MULLIKEN REDUCED ORBITAL CHARGES
--------------------------------
  0 C s       :     3.150865  s :     3.150865
      pz      :     1.052528  p :     2.968798
      px      :     0.862398
      py      :     1.053872
      dz2     :     0.006028  d :     0.026005
      dxz     :     0.004884
      dyz     :     0.003662
      dx2y2   :     0.004072
      dxy     :     0.007359
  1 Brs       :     7.973913  s :     7.973913
      pz      :     5.830649  p :    17.212535
      px      :     5.454287
      py      :     5.927599
      dz2     :     2.006604  d :    10.047136
      dxz     :     2.015024
      dyz     :     2.003366
      dx2y2   :     2.011367
      dxy     :     2.010774
  2 H s       :     0.871120  s :     0.871120
      pz      :     0.006689  p :     0.024039
      px      :     0.005111
      py      :     0.012239
  3 H s       :     0.866173  s :     0.866173
      pz      :     0.004684  p :     0.024099
      px      :     0.008729
      py      :     0.010686
  4 H s       :     0.887995  s :     0.887995
      pz      :     0.017498  p :     0.026888
      px      :     0.004785
      py      :     0.004604
  5 Brs       :     7.994642  s :     7.994642
      pz      :     5.945103  p :    17.924790
      px      :     5.980622
      py      :     5.999065
      dz2     :     2.000439  d :    10.001004
      dxz     :     2.000509
      dyz     :     2.000019
      dx2y2   :     2.000033
      dxy     :     2.000004


                     *******************************
                     * LOEWDIN POPULATION ANALYSIS *
                     *******************************

----------------------
LOEWDIN ATOMIC CHARGES
----------------------
   0 C :   -0.121955
   1 Br:   -0.042520
   2 H :    0.039075
   3 H :    0.039563
   4 H :    0.002609
   5 Br:   -0.916773

-------------------------------
LOEWDIN REDUCED ORBITAL CHARGES
-------------------------------
  0 C s       :     2.923347  s :     2.923347
      pz      :     1.086451  p :     3.135471
      px      :     0.954851
      py      :     1.094170
      dz2     :     0.015847  d :     0.063136
      dxz     :     0.010918
      dyz     :     0.008457
      dx2y2   :     0.009288
      dxy     :     0.018626
  1 Brs       :     7.823913  s :     7.823913
      pz      :     5.811832  p :    17.161943
      px      :     5.443371
      py      :     5.906739
      dz2     :     2.007499  d :    10.056663
      dxz     :     2.019001
      dyz     :     2.004010
      dx2y2   :     2.013697
      dxy     :     2.012456
  2 H s       :     0.890006  s :     0.890006
      pz      :     0.019480  p :     0.070919
      px      :     0.015601
      py      :     0.035838
  3 H s       :     0.889299  s :     0.889299
      pz      :     0.013759  p :     0.071138
      px      :     0.026956
      py      :     0.030423
  4 H s       :     0.911799  s :     0.911799
      pz      :     0.057834  p :     0.085592
      px      :     0.014432
      py      :     0.013325
  5 Brs       :     7.989993  s :     7.989993
      pz      :     5.943603  p :    17.925682
      px      :     5.983093
      py      :     5.998986
      dz2     :     2.000442  d :    10.001098
      dxz     :     2.000600
      dyz     :     2.000014
      dx2y2   :     2.000039
      dxy     :     2.000003


                      *****************************
                      * MAYER POPULATION ANALYSIS *
                      *****************************

  NA   - Mulliken gross atomic population
  ZA   - Total nuclear charge
  QA   - Mulliken gross atomic charge
  VA   - Mayer's total valence
  BVA  - Mayer's bonded valence
  FA   - Mayer's free valence

  ATOM       NA         ZA         QA         VA         BVA        FA
  0 C      6.1457     6.0000    -0.1457     3.8160     3.8160    -0.0000
  1 Br    35.2336    35.0000    -0.2336     0.9993     0.9993     0.0000
  2 H      0.8952     1.0000     0.1048     0.9737     0.9737    -0.0000
  3 H      0.8903     1.0000     0.1097     0.9729     0.9729    -0.0000
  4 H      0.9149     1.0000     0.0851     1.0863     1.0863    -0.0000
  5 Br    35.9204    35.0000    -0.9204     0.1595     0.1595     0.0000

  Mayer bond orders larger than 0.100000
B(  0-C ,  1-Br) :   0.9812 B(  0-C ,  2-H ) :   0.9666 B(  0-C ,  3-H ) :   0.9676 
B(  0-C ,  4-H ) :   0.9194 B(  4-H ,  5-Br) :   0.1667 


------------------
HIRSHFELD ANALYSIS
------------------

Total integrated alpha density =     39.999826787
Total integrated beta density  =     39.999826787

  ATOM     CHARGE      SPIN    
   0 C   -0.038094    0.000000
   1 Br  -0.165763    0.000000
   2 H    0.047080    0.000000
   3 H    0.046029    0.000000
   4 H    0.005999    0.000000
   5 Br  -0.894905    0.000000

  TOTAL  -0.999654    0.000000

-------
TIMINGS
-------

Total SCF time: 0 days 0 hours 0 min 6 sec 

Total time                  ....       6.530 sec
Sum of individual times     ....       6.408 sec  ( 98.1%)

Fock matrix formation       ....       5.840 sec  ( 89.4%)
  Split-RI-J                ....       1.157 sec  ( 19.8% of F)
  Chain of spheres X        ....       2.188 sec  ( 37.5% of F)
  COS-X 1 center corr.      ....       0.000 sec  (  0.0% of F)
  XC integration            ....       0.387 sec  (  6.6% of F)
    Basis function eval.    ....       0.088 sec  ( 22.8% of XC)
    Density eval.           ....       0.033 sec  (  8.6% of XC)
    XC-Functional eval.     ....       0.032 sec  (  8.3% of XC)
    XC-Potential eval.      ....       0.045 sec  ( 11.6% of XC)
Diagonalization             ....       0.007 sec  (  0.1%)
Density matrix formation    ....       0.001 sec  (  0.0%)
Population analysis         ....       0.015 sec  (  0.2%)
Initial guess               ....       0.133 sec  (  2.0%)
Orbital Transformation      ....       0.000 sec  (  0.0%)
Orbital Orthonormalization  ....       0.000 sec  (  0.0%)
DIIS solution               ....       0.002 sec  (  0.0%)
SOSCF solution              ....       0.004 sec  (  0.1%)
Grid generation             ....       0.406 sec  (  6.2%)


-------------------------------------------------------------------------------
                          DFT DISPERSION CORRECTION                            
                                                                               
                              DFTD3 V3.1  Rev 1                                
                          USING Becke-Johnson damping                          
-------------------------------------------------------------------------------
The PBE0 functional is recognized
Active option DFTDOPT                   ...         4   

molecular C6(AA) [au] = 1256.934683 


            DFT-D V3
 parameters
 s6 scaling factor         :     1.0000 
 a1 scaling factor         :     0.4145 
 s8 scaling factor         :     1.2177 
 a2 scaling factor         :     4.8593 
 ad hoc parameters k1-k3   :    16.0000     1.3333    -4.0000 

 Edisp/kcal,au: -2.193922749919  -0.003496238075 
 E6   /kcal   :  -1.237042130 
 E8   /kcal   :  -0.956880620 
 % E8         :  43.615055278 

-------------------------   ----------------
Dispersion correction           -0.003496238
-------------------------   ----------------


-------------------------   --------------------
FINAL SINGLE POINT ENERGY     -5187.094927151967
-------------------------   --------------------

[1631282516.212425] [comp0805:33508:0]            sys.c:618  UCX  ERROR shmget(size=2097152 flags=0xfb0) for mm_recv_desc failed: Operation not permitted, please check shared memory limits by 'ipcs -l'
[1631282516.218789] [comp0805:33506:0]            sys.c:618  UCX  ERROR shmget(size=2097152 flags=0xfb0) for mm_recv_desc failed: Operation not permitted, please check shared memory limits by 'ipcs -l'
[1631282516.224867] [comp0805:33509:0]            sys.c:618  UCX  ERROR shmget(size=2097152 flags=0xfb0) for mm_recv_desc failed: Operation not permitted, please check shared memory limits by 'ipcs -l'
[1631282516.235797] [comp0805:33507:0]            sys.c:618  UCX  ERROR shmget(size=2097152 flags=0xfb0) for mm_recv_desc failed: Operation not permitted, please check shared memory limits by 'ipcs -l'
[1631282516.242431] [comp0805:33508:0]            sys.c:618  UCX  ERROR shmget(size=2097152 flags=0xb80) for ucp_am_bufs failed: Operation not permitted, please check shared memory limits by 'ipcs -l'
[1631282516.242436] [comp0805:33509:0]            sys.c:618  UCX  ERROR shmget(size=2097152 flags=0xb80) for ucp_am_bufs failed: Operation not permitted, please check shared memory limits by 'ipcs -l'


           ************************************************************
           *        Program running with 4 parallel MPI-processes     *
           *              working on a common directory               *
           ************************************************************
[1631282516.245474] [comp0805:33507:0]            sys.c:618  UCX  ERROR shmget(size=2097152 flags=0xb80) for ucp_am_bufs failed: Operation not permitted, please check shared memory limits by 'ipcs -l'
------------------------------------------------------------------------------
                         ORCA SCF GRADIENT CALCULATION
------------------------------------------------------------------------------

Gradient of the Kohn-Sham DFT energy:
Kohn-Sham wavefunction type      ... RKS
Hartree-Fock exchange scaling    ...    0.250
Number of operators              ...    1
Number of atoms                  ...    6
Basis set dimensions             ...   93
Integral neglect threshold       ... 2.5e-11
Integral primitive cutoff        ... 2.5e-12

Nuclear repulsion gradient       ... done
One Electron Gradient            ... done
Pre-screening matrix             ... done
[1631282516.837969] [comp0805:33506:0]            sys.c:618  UCX  ERROR shmget(size=2097152 flags=0xb80) for ucp_am_bufs failed: Operation not permitted, please check shared memory limits by 'ipcs -l'
RI-J gradient                    ... done
COSX-gradient                    ... done
Exchange-correlation gradient    ... done
Dispersion correction            ... done

------------------
CARTESIAN GRADIENT
------------------

   1   C   :    0.000294563   -0.000404660    0.001482671
   2   Br  :    0.000322786   -0.001109063    0.000052736
   3   H   :   -0.000293397   -0.000253328    0.000279823
   4   H   :    0.000435398   -0.000091155   -0.000172340
   5   H   :    0.001196306   -0.000397699    0.001189970
   6   Br  :   -0.001207176    0.000218962   -0.002908589

Difference to translation invariance:
           :    0.0007484808   -0.0020369413   -0.0000757308

Norm of the cartesian gradient     ...    0.0041487843
RMS gradient                       ...    0.0009778778
MAX gradient                       ...    0.0029085892

-------
TIMINGS
-------

Total SCF gradient time            ...        1.275 sec

One electron gradient       ....       0.006 sec  (  0.5%)
Prescreening matrices       ....       0.099 sec  (  7.7%)
RI-J Coulomb gradient       ....       0.092 sec  (  7.2%)
COSX gradient               ....       0.318 sec  ( 24.9%)
XC gradient                 ....       0.203 sec  ( 15.9%)
CPCM gradient               ....       0.203 sec  ( 15.9%)
   A-Matrix (El+Nuc)        ....       0.011 sec  (  0.9%)
   Potential                ....       0.192 sec  ( 15.0%)
------------------------------------------------------------------------------
                         ORCA GEOMETRY RELAXATION STEP
------------------------------------------------------------------------------

Reading the OPT-File                    .... done
Getting information on internals        .... done
Copying old internal coords+grads       .... done
Making the new internal coordinates     .... (new redundants).... done
Validating the new internal coordinates .... (new redundants).... done
Calculating the B-matrix                .... done
Calculating the G,G- and P matrices     .... done
Transforming gradient to internals      .... done
Projecting the internal gradient        .... done
Number of atoms                         ....   6
Number of internal coordinates          ....  15
Current Energy                          .... -5187.094927152 Eh
Current gradient norm                   ....     0.004148784 Eh/bohr
Maximum allowed component of the step   ....  0.300
Current trust radius                    ....  0.300
Evaluating the initial hessian          ....  (Almloef) done
Projecting the Hessian                  .... done
Forming the augmented Hessian           .... done
Diagonalizing the augmented Hessian     .... done
Last element of RFO vector              ....  0.913154529
Lowest eigenvalues of augmented Hessian:
 -0.001452929  0.007207956  0.108020196  0.176532175  0.221442386
Length of the computed step             ....  0.446379595
Warning: the length of the step is outside the trust region - taking restricted step instead
The input lambda is                     ....    -0.001453
   iter:   1  x=   -0.003433  g=   55.164256 f(x)=     0.109255
   iter:   2  x=   -0.004661  g=   26.663740 f(x)=     0.032739
   iter:   3  x=   -0.004965  g=   18.312638 f(x)=     0.005554
   iter:   4  x=   -0.004978  g=   16.803878 f(x)=     0.000233
   iter:   5  x=   -0.004978  g=   16.738882 f(x)=     0.000000
   iter:   6  x=   -0.004978  g=   16.738756 f(x)=     0.000000
   iter:   7  x=   -0.004978  g=   16.738756 f(x)=     0.000000
The output lambda is                    ....    -0.004978 (7 iterations)
The final length of the internal step   ....  0.300000000
Converting the step to cartesian space:
 Initial RMS(Int)=    0.0774596669
Transforming coordinates:
 Iter   0:  RMS(Cart)=    0.0444131385 RMS(Int)=    0.0516868836
 Iter   1:  RMS(Cart)=    0.0213904328 RMS(Int)=    0.0257911802
 Iter   2:  RMS(Cart)=    0.0001050921 RMS(Int)=    0.0000503765
 Iter   3:  RMS(Cart)=    0.0000032486 RMS(Int)=    0.0000017313
 Iter   4:  RMS(Cart)=    0.0000001007 RMS(Int)=    0.0000000531
 Iter   5:  RMS(Cart)=    0.0000000031 RMS(Int)=    0.0000000016
done
Storing new coordinates                 .... done

                                .--------------------.
          ----------------------|Geometry convergence|-------------------------
          Item                value                   Tolerance       Converged
          ---------------------------------------------------------------------
          RMS gradient        0.0009893735            0.0001000000      NO
          MAX gradient        0.0032234574            0.0003000000      NO
          RMS step            0.0774596669            0.0020000000      NO
          MAX step            0.2999174393            0.0040000000      NO
          ........................................................
          Max(Bonds)      0.1587      Max(Angles)    0.24
          Max(Dihed)        0.05      Max(Improp)    0.00
          ---------------------------------------------------------------------

The optimization has not yet converged - more geometry cycles are needed


    ---------------------------------------------------------------------------
                         Redundant Internal Coordinates
                            (Angstroem and degrees)

        Definition                    Value    dE/dq     Step     New-Value
    ----------------------------------------------------------------------------
     1. B(Br  1,C   0)                1.9441 -0.000063  0.0001    1.9442   
     2. B(H   2,C   0)                1.0960 -0.000044  0.0001    1.0961   
     3. B(H   3,C   0)                1.0956 -0.000035  0.0001    1.0956   
     4. B(H   4,C   0)                1.1032 -0.001749  0.0027    1.1058   
     5. B(Br  5,H   4)                2.5453 -0.003223  0.1587    2.7040   
     6. A(Br  1,C   0,H   3)          107.28  0.000149   -0.02    107.27   
     7. A(Br  1,C   0,H   2)          107.93  0.000268   -0.04    107.89   
     8. A(Br  1,C   0,H   4)          106.16 -0.000709    0.13    106.29   
     9. A(H   2,C   0,H   4)          112.14  0.000106   -0.02    112.12   
    10. A(H   3,C   0,H   4)          112.27  0.000138   -0.03    112.24   
    11. A(H   2,C   0,H   3)          110.73  0.000027   -0.01    110.72   
    12. A(C   0,H   4,Br  5)          166.02 -0.000754    0.24    166.26   
    13. D(Br  5,H   4,C   0,H   2)    132.96 -0.000063    0.01    132.97   
    14. D(Br  5,H   4,C   0,H   3)   -101.61  0.000167   -0.05   -101.66   
    15. D(Br  5,H   4,C   0,Br  1)     15.32 -0.000010   -0.01     15.31   
    ----------------------------------------------------------------------------

         *************************************************************
         *                GEOMETRY OPTIMIZATION CYCLE   2            *
         *************************************************************
---------------------------------
CARTESIAN COORDINATES (ANGSTROEM)
---------------------------------
  C     -1.389576   -0.256010   -0.382303
  Br     0.243132    0.298613   -1.280376
  H     -1.755274   -1.162558   -0.878162
  H     -2.111867    0.561176   -0.486776
  H     -1.115744   -0.440289    0.673111
  Br     0.086919   -0.562252    3.091837

----------------------------
CARTESIAN COORDINATES (A.U.)
----------------------------
  NO LB      ZA    FRAG     MASS         X           Y           Z
   0 C     6.0000    0    12.011   -2.625918   -0.483789   -0.722447
   1 Br   35.0000    0    79.900    0.459452    0.564297   -2.419560
   2 H     1.0000    0     1.008   -3.316987   -2.196915   -1.659486
   3 H     1.0000    0     1.008   -3.990850    1.060468   -0.919874
   4 H     1.0000    0     1.008   -2.108451   -0.832026    1.271995
   5 Br   35.0000    0    79.900    0.164254   -1.062502    5.842724

--------------------------------
INTERNAL COORDINATES (ANGSTROEM)
--------------------------------
 C      0   0   0     0.000000000000     0.00000000     0.00000000
 Br     1   0   0     1.944190825390     0.00000000     0.00000000
 H      1   2   0     1.096102440863   107.88770741     0.00000000
 H      1   2   3     1.095632466584   107.26592845   240.68452964
 H      1   2   3     1.105820901055   106.28732273   120.43279580
 Br     5   1   2     2.703980249497   166.26055960    15.31146247

---------------------------
INTERNAL COORDINATES (A.U.)
---------------------------
 C      0   0   0     0.000000000000     0.00000000     0.00000000
 Br     1   0   0     3.673988212070     0.00000000     0.00000000
 H      1   2   0     2.071333427954   107.88770741     0.00000000
 H      1   2   3     2.070445305276   107.26592845   240.68452964
 H      1   2   3     2.089698656160   106.28732273   120.43279580
 Br     5   1   2     5.109782143082   166.26055960    15.31146247

[1631282518.574444] [comp0805:33550:0]            sys.c:618  UCX  ERROR shmget(size=2097152 flags=0xfb0) for mm_recv_desc failed: Operation not permitted, please check shared memory limits by 'ipcs -l'
[1631282518.577089] [comp0805:33552:0]            sys.c:618  UCX  ERROR shmget(size=2097152 flags=0xfb0) for mm_recv_desc failed: Operation not permitted, please check shared memory limits by 'ipcs -l'
[1631282518.585491] [comp0805:33551:0]            sys.c:618  UCX  ERROR shmget(size=2097152 flags=0xfb0) for mm_recv_desc failed: Operation not permitted, please check shared memory limits by 'ipcs -l'
[1631282518.595724] [comp0805:33553:0]            sys.c:618  UCX  ERROR shmget(size=2097152 flags=0xfb0) for mm_recv_desc failed: Operation not permitted, please check shared memory limits by 'ipcs -l'
[1631282518.603201] [comp0805:33551:0]            sys.c:618  UCX  ERROR shmget(size=2097152 flags=0xb80) for ucp_am_bufs failed: Operation not permitted, please check shared memory limits by 'ipcs -l'
[1631282518.603723] [comp0805:33550:0]            sys.c:618  UCX  ERROR shmget(size=2097152 flags=0xb80) for ucp_am_bufs failed: Operation not permitted, please check shared memory limits by 'ipcs -l'


           ************************************************************
           *        Program running with 4 parallel MPI-processes     *
           *              working on a common directory               *
           ************************************************************
 One Electron integrals                  ... done
 Pre-screening matrix                    ... done
[1631282518.791400] [comp0805:33552:0]            sys.c:618  UCX  ERROR shmget(size=2097152 flags=0xb80) for ucp_am_bufs failed: Operation not permitted, please check shared memory limits by 'ipcs -l'
[1631282518.792428] [comp0805:33553:0]            sys.c:618  UCX  ERROR shmget(size=2097152 flags=0xb80) for ucp_am_bufs failed: Operation not permitted, please check shared memory limits by 'ipcs -l'
[1631282519.698049] [comp0805:33579:0]            sys.c:618  UCX  ERROR shmget(size=2097152 flags=0xfb0) for mm_recv_desc failed: Operation not permitted, please check shared memory limits by 'ipcs -l'
[1631282519.698595] [comp0805:33577:0]            sys.c:618  UCX  ERROR shmget(size=2097152 flags=0xfb0) for mm_recv_desc failed: Operation not permitted, please check shared memory limits by 'ipcs -l'
[1631282519.722452] [comp0805:33578:0]            sys.c:618  UCX  ERROR shmget(size=2097152 flags=0xfb0) for mm_recv_desc failed: Operation not permitted, please check shared memory limits by 'ipcs -l'
[1631282519.722584] [comp0805:33580:0]            sys.c:618  UCX  ERROR shmget(size=2097152 flags=0xfb0) for mm_recv_desc failed: Operation not permitted, please check shared memory limits by 'ipcs -l'
[1631282519.730394] [comp0805:33580:0]            sys.c:618  UCX  ERROR shmget(size=2097152 flags=0xb80) for ucp_am_bufs failed: Operation not permitted, please check shared memory limits by 'ipcs -l'
[1631282519.731251] [comp0805:33579:0]            sys.c:618  UCX  ERROR shmget(size=2097152 flags=0xb80) for ucp_am_bufs failed: Operation not permitted, please check shared memory limits by 'ipcs -l'
[1631282519.731275] [comp0805:33577:0]            sys.c:618  UCX  ERROR shmget(size=2097152 flags=0xb80) for ucp_am_bufs failed: Operation not permitted, please check shared memory limits by 'ipcs -l'


           ************************************************************
           *        Program running with 4 parallel MPI-processes     *
           *              working on a common directory               *
           ************************************************************
[1631282519.738179] [comp0805:33578:0]            sys.c:618  UCX  ERROR shmget(size=2097152 flags=0xb80) for ucp_am_bufs failed: Operation not permitted, please check shared memory limits by 'ipcs -l'

Diagonalization of the overlap matrix:
Smallest eigenvalue                        ... 8.852e-03
Time for diagonalization                   ...    0.003 sec
Threshold for overlap eigenvalues          ... 1.000e-08
Number of eigenvalues below threshold      ... 0
Time for construction of square roots      ...    0.001 sec
Total time needed                          ...    0.004 sec

-------------------
DFT GRID GENERATION
-------------------

General Integration Accuracy     IntAcc      ...  4.340
Radial Grid Type                 RadialGrid  ... Gauss-Chebyshev
Angular Grid (max. acc.)         AngularGrid ... Lebedev-110
Angular grid pruning method      GridPruning ... 3 (G Style)
Weight generation scheme         WeightScheme... Becke
Basis function cutoff            BFCut       ...    1.0000e-11
Integration weight cutoff        WCut        ...    1.0000e-14
Grids for H and He will be reduced by one unit

# of grid points (after initial pruning)     ...   9818 (   0.0 sec)
# of grid points (after weights+screening)   ...   9652 (   0.0 sec)
nearest neighbour list constructed           ...    0.0 sec
Grid point re-assignment to atoms done       ...    0.0 sec
Grid point division into batches done        ...    0.0 sec
Reduced shell lists constructed in    0.0 sec

Total number of grid points                  ...     9652
Total number of batches                      ...      154
Average number of points per batch           ...       62
Average number of grid points per atom       ...     1609
Average number of shells per batch           ...    25.18 (64.55%)
Average number of basis functions per batch  ...    58.53 (62.93%)
Average number of large shells per batch     ...    21.35 (84.81%)
Average number of large basis fcns per batch ...    48.75 (83.30%)
Maximum spatial batch extension              ...  15.17, 18.58, 15.16 au
Average spatial batch extension              ...   1.02,  1.14,  0.95 au

Time for grid setup =    0.054 sec

--------------------
COSX GRID GENERATION
--------------------

General Integration Accuracy     IntAcc      ...  3.340
Radial Grid Type                 RadialGrid  ... Gauss-Chebyshev
Angular Grid (max. acc.)         AngularGrid ... Lebedev-50
Angular grid pruning method      GridPruning ... 3 (G Style)
Weight generation scheme         WeightScheme... Becke
Basis function cutoff            BFCut       ...    1.0000e-11
Integration weight cutoff        WCut        ...    1.0000e-14
Grids for H and He will be reduced by one unit

# of grid points (after initial pruning)     ...   3624 (   0.0 sec)
# of grid points (after weights+screening)   ...   3565 (   0.0 sec)
nearest neighbour list constructed           ...    0.0 sec
Grid point re-assignment to atoms done       ...    0.0 sec
Grid point division into batches done        ...    0.0 sec
Reduced shell lists constructed in    0.0 sec

Total number of grid points                  ...     3565
Total number of batches                      ...       59
Average number of points per batch           ...       60
Average number of grid points per atom       ...      594
Average number of shells per batch           ...    26.62 (68.27%)
Average number of basis functions per batch  ...    62.25 (66.94%)
Average number of large shells per batch     ...    23.19 (87.09%)
Average number of large basis fcns per batch ...    53.94 (86.65%)
Maximum spatial batch extension              ...  14.08, 21.12, 14.76 au
Average spatial batch extension              ...   1.37,  1.67,  1.39 au

Overlap Fitting                  UseSFitting ... on
Constructing numerical overlap ... done (      0.0 sec)
Inverting numerical overlap    ... done (      0.0 sec)
Obtaining analytic overlap     ... done (      0.0 sec)
Final contraction and storage  ... done (      0.0 sec)


General Integration Accuracy     IntAcc      ...  3.670
Radial Grid Type                 RadialGrid  ... Gauss-Chebyshev
Angular Grid (max. acc.)         AngularGrid ... Lebedev-50
Angular grid pruning method      GridPruning ... 3 (G Style)
Weight generation scheme         WeightScheme... Becke
Basis function cutoff            BFCut       ...    1.0000e-11
Integration weight cutoff        WCut        ...    1.0000e-14
Grids for H and He will be reduced by one unit

# of grid points (after initial pruning)     ...   4426 (   0.0 sec)
# of grid points (after weights+screening)   ...   4348 (   0.0 sec)
nearest neighbour list constructed           ...    0.0 sec
Grid point re-assignment to atoms done       ...    0.0 sec
Grid point division into batches done        ...    0.0 sec
Reduced shell lists constructed in    0.0 sec

Total number of grid points                  ...     4348
Total number of batches                      ...       70
Average number of points per batch           ...       62
Average number of grid points per atom       ...      725
Average number of shells per batch           ...    26.53 (68.02%)
Average number of basis functions per batch  ...    61.58 (66.21%)
Average number of large shells per batch     ...    22.89 (86.31%)
Average number of large basis fcns per batch ...    52.58 (85.38%)
Maximum spatial batch extension              ...  15.22, 22.48, 15.79 au
Average spatial batch extension              ...   1.26,  1.52,  1.31 au

Overlap Fitting                  UseSFitting ... on
Constructing numerical overlap ... done (      0.0 sec)
Inverting numerical overlap    ... done (      0.0 sec)
Obtaining analytic overlap     ... done (      0.0 sec)
Final contraction and storage  ... done (      0.0 sec)


General Integration Accuracy     IntAcc      ...  4.010
Radial Grid Type                 RadialGrid  ... Gauss-Chebyshev
Angular Grid (max. acc.)         AngularGrid ... Lebedev-110
Angular grid pruning method      GridPruning ... 3 (G Style)
Weight generation scheme         WeightScheme... Becke
Basis function cutoff            BFCut       ...    1.0000e-11
Integration weight cutoff        WCut        ...    1.0000e-14
Grids for H and He will be reduced by one unit

# of grid points (after initial pruning)     ...   8636 (   0.0 sec)
# of grid points (after weights+screening)   ...   8498 (   0.0 sec)
nearest neighbour list constructed           ...    0.0 sec
Grid point re-assignment to atoms done       ...    0.0 sec
Grid point division into batches done        ...    0.0 sec
Reduced shell lists constructed in    0.0 sec

Total number of grid points                  ...     8498
Total number of batches                      ...      136
Average number of points per batch           ...       62
Average number of grid points per atom       ...     1416
Average number of shells per batch           ...    25.23 (64.69%)
Average number of basis functions per batch  ...    58.83 (63.26%)
Average number of large shells per batch     ...    21.46 (85.05%)
Average number of large basis fcns per batch ...    49.23 (83.68%)
Maximum spatial batch extension              ...  14.74, 17.48, 14.45 au
Average spatial batch extension              ...   1.08,  1.18,  1.00 au

Overlap Fitting                  UseSFitting ... on
Constructing numerical overlap ... done (      0.0 sec)
Inverting numerical overlap    ... done (      0.0 sec)
Obtaining analytic overlap     ... done (      0.0 sec)
Final contraction and storage  ... done (      0.0 sec)

Time for X-Grid setup             =    0.158 sec

--------------------
CPCM SOLVATION MODEL
--------------------
CPCM parameters:
  Epsilon                                         ...      20.7000
  Refrac                                          ...       1.3590
  Rsolv                                           ...       1.3000
  Surface type                                    ... GAUSSIAN VDW
  Epsilon function type                           ...         CPCM
Radii:
 Radius for C  used is    3.8550 Bohr (=   2.0400 Ang.)
 Radius for Br used is    4.1952 Bohr (=   2.2200 Ang.)
 Radius for H  used is    2.4944 Bohr (=   1.3200 Ang.)
Calculating surface                               ...        done! (  0.0s)
GEPOL surface points                              ...          441
GEPOL Volume                                      ...     769.6109
GEPOL Surface-area                                ...     500.1214
Calculating surface distance matrix               ...        done! (  0.0s)
Performing Cholesky decomposition & store         ...        done! (  0.0s)
Overall time for CPCM initialization              ...                 0.0s
--------------
SCF ITERATIONS
--------------
ITER       Energy         Delta-E        Max-DP      RMS-DP      [F,P]     Damp
               ***  Starting incremental Fock matrix formation  ***
  0  -5187.0920838216   0.000000000000 0.00217827  0.00009360  0.0185437 0.7000
                      *** Initiating the SOSCF procedure ***
                      *** Re-Reading the Fockian *** 
                      *** Removing any level shift *** 
ITER      Energy       Delta-E        Grad      Rot      Max-DP    RMS-DP
  1  -5187.09212785  -0.0000440254  0.000740  0.000740  0.006780  0.000299
               *** Restarting incremental Fock matrix formation ***
  2  -5187.09224316  -0.0001153163  0.000346  0.000727  0.001972  0.000084
  3  -5187.09224538  -0.0000022151  0.000351  0.000504  0.000631  0.000028
  4  -5187.09224646  -0.0000010827  0.000094  0.000121  0.000315  0.000014
  5  -5187.09224657  -0.0000001108  0.000017  0.000018  0.000114  0.000003
  6  -5187.09224658  -0.0000000118  0.000014  0.000007  0.000042  0.000001
  7  -5187.09224660  -0.0000000210  0.000004  0.000002  0.000004  0.000000
                  ***Gradient check signals convergence***
              ***Rediagonalizing the Fockian in SOSCF/NRSCF***

               *****************************************************
               *                     SUCCESS                       *
               *           SCF CONVERGED AFTER   8 CYCLES          *
               *****************************************************

Setting up the final grid:

General Integration Accuracy     IntAcc      ...  4.670
Radial Grid Type                 RadialGrid  ... Gauss-Chebyshev
Angular Grid (max. acc.)         AngularGrid ... Lebedev-302
Angular grid pruning method      GridPruning ... 3 (G Style)
Weight generation scheme         WeightScheme... Becke
Basis function cutoff            BFCut       ...    1.0000e-11
Integration weight cutoff        WCut        ...    1.0000e-14
Grids for H and He will be reduced by one unit

# of grid points (after initial pruning)     ...  35626 (   0.0 sec)
# of grid points (after weights+screening)   ...  34888 (   0.0 sec)
nearest neighbour list constructed           ...    0.0 sec
Grid point re-assignment to atoms done       ...    0.0 sec
Grid point division into batches done        ...    0.2 sec
Reduced shell lists constructed in    0.2 sec

Total number of grid points                  ...    34888
Total number of batches                      ...      548
Average number of points per batch           ...       63
Average number of grid points per atom       ...     5815
Average number of shells per batch           ...    23.67 (60.68%)
Average number of basis functions per batch  ...    54.78 (58.91%)
Average number of large shells per batch     ...    19.54 (82.55%)
Average number of large basis fcns per batch ...    44.19 (80.66%)
Maximum spatial batch extension              ...  14.94, 16.12, 16.80 au
Average spatial batch extension              ...   0.70,  0.72,  0.69 au

Final grid set up in    0.2 sec
Final integration                            ... done (   0.0 sec)
Change in XC energy                          ...     0.000112046
Integrated number of electrons               ...    79.999991942
Previous integrated no of electrons          ...    80.000380789
Old exchange energy                            =    -46.419400321 Eh
New exchange energy                            =    -46.419211892 Eh
Exchange energy change after final integration =      0.000188429 Eh
Total energy after final integration           =  -5187.091946146 Eh
Final COS-X integration done in                =     0.351 sec
Total Energy       :        -5187.09194615 Eh         -141147.94768 eV
  Last Energy change         ...   -1.6892e-08  Tolerance :   1.0000e-08
  Last MAX-Density change    ...    3.1086e-15  Tolerance :   1.0000e-07
             **** THE GBW FILE WAS UPDATED (manual_reactants_327.gbw) ****
             **** DENSITY FILE WAS UPDATED (manual_reactants_327.scfp) ****
             **** ENERGY FILE WAS UPDATED (manual_reactants_327.en.tmp) ****
             **** THE GBW FILE WAS UPDATED (manual_reactants_327.gbw) ****
             **** DENSITY FILE WAS UPDATED (manual_reactants_327.scfp) ****
Total SCF time: 0 days 0 hours 0 min 5 sec 


-------------------------------------------------------------------------------
                          DFT DISPERSION CORRECTION                            
                                                                               
                              DFTD3 V3.1  Rev 1                                
                          USING Becke-Johnson damping                          
-------------------------------------------------------------------------------
-------------------------   ----------------
Dispersion correction           -0.003343519
-------------------------   ----------------


-------------------------   --------------------
FINAL SINGLE POINT ENERGY     -5187.095289665428
-------------------------   --------------------

[...]
# of grid points (after weights+screening)   ...  34888 (   0.0 sec)
nearest neighbour list constructed           ...    0.0 sec
Grid point re-assignment to atoms done       ...    0.0 sec
Grid point division into batches done        ...    0.2 sec
Reduced shell lists constructed in    0.2 sec

Total number of grid points                  ...    34888
Total number of batches                      ...      548
Average number of points per batch           ...       63
Average number of grid points per atom       ...     5815
Average number of shells per batch           ...    23.82 (61.07%)
Average number of basis functions per batch  ...    55.21 (59.37%)
Average number of large shells per batch     ...    19.67 (82.60%)
Average number of large basis fcns per batch ...    44.31 (80.26%)
Maximum spatial batch extension              ...  14.94, 16.09, 16.03 au
Average spatial batch extension              ...   0.66,  0.72,  0.68 au

Final grid set up in    0.2 sec
Final integration                            ... done (   0.0 sec)
Change in XC energy                          ...     0.000214169
Integrated number of electrons               ...    79.999961000
Previous integrated no of electrons          ...    80.002507051
Old exchange energy                            =    -46.419441900 Eh
New exchange energy                            =    -46.419586433 Eh
Exchange energy change after final integration =     -0.000144533 Eh
Total energy after final integration           =  -5187.091837779 Eh
Final COS-X integration done in                =     0.271 sec

----------------
TOTAL SCF ENERGY
----------------

Total Energy       :        -5187.09183778 Eh         -141147.94473 eV

Components:
Nuclear Repulsion  :          279.73284615 Eh            7611.91773 eV
Electronic Energy  :        -5466.82468393 Eh         -148759.86246 eV
One Electron Energy:        -7793.97836214 Eh         -212084.93342 eV
Two Electron Energy:         2327.15367820 Eh           63325.07097 eV
CPCM Dielectric    :           -0.10795288 Eh              -2.93755 eV

Virial components:
Potential Energy   :       -10368.65573482 Eh         -282145.46654 eV
Kinetic Energy     :         5181.56389704 Eh          140997.52181 eV
Virial Ratio       :            2.00106685


DFT components:
N(Alpha)           :       39.999980500172 electrons
N(Beta)            :       39.999980500172 electrons
N(Total)           :       79.999961000343 electrons
E(X)               :     -138.671362172113 Eh       
E(C)               :       -3.745042419952 Eh       
E(XC)              :     -142.416404592065 Eh       
DFET-embed. en.    :        0.000000000000 Eh       
CPCM Solvation Model Properties:
Surface-charge          :            0.98344965
Charge-correction       :           -0.00236271 Eh              -0.06429 eV
Free-energy (cav+disp)  :            0.00363145 Eh               0.09882 eV
Corrected G(solv)       :        -5187.09056904 Eh         -141147.91020 eV

---------------
SCF CONVERGENCE
---------------

  Last Energy change         ...   -2.8887e-08  Tolerance :   1.0000e-08
  Last MAX-Density change    ...    4.4409e-15  Tolerance :   1.0000e-07
  Last RMS-Density change    ...    1.3463e-16  Tolerance :   5.0000e-09
  Last Orbital Gradient      ...    1.1222e-06  Tolerance :   1.0000e-05
  Last Orbital Rotation      ...    1.4252e-06  Tolerance :   1.0000e-05

             **** THE GBW FILE WAS UPDATED (manual_reactants_327.gbw) ****
             **** DENSITY FILE WAS UPDATED (manual_reactants_327.scfp) ****
             **** ENERGY FILE WAS UPDATED (manual_reactants_327.en.tmp) ****
             **** THE GBW FILE WAS UPDATED (manual_reactants_327.gbw) ****
             **** DENSITY FILE WAS UPDATED (manual_reactants_327.scfp) ****
----------------
ORBITAL ENERGIES
----------------

  NO   OCC          E(Eh)            E(eV) 
   0   2.0000    -483.174654    -13147.8508 
   1   2.0000    -483.062346    -13144.7947 
   2   2.0000     -62.610989     -1703.7316 
   3   2.0000     -62.497575     -1700.6455 
   4   2.0000     -56.400218     -1534.7280 
   5   2.0000     -56.397811     -1534.6624 
   6   2.0000     -56.397798     -1534.6621 
   7   2.0000     -56.285537     -1531.6073 
   8   2.0000     -56.285523     -1531.6069 
   9   2.0000     -56.285157     -1531.5970 
  10   2.0000     -10.268087      -279.4088 
  11   2.0000      -8.756385      -238.2733 
  12   2.0000      -8.641035      -235.1345 
  13   2.0000      -6.571049      -178.8073 
  14   2.0000      -6.558345      -178.4616 
  15   2.0000      -6.558274      -178.4597 
  16   2.0000      -6.447634      -175.4491 
  17   2.0000      -6.447198      -175.4372 
  18   2.0000      -6.447191      -175.4370 
  19   2.0000      -2.656568       -72.2889 
  20   2.0000      -2.653013       -72.1922 
  21   2.0000      -2.652918       -72.1896 
  22   2.0000      -2.642626       -71.9095 
  23   2.0000      -2.642617       -71.9093 
  24   2.0000      -2.534385       -68.9641 
  25   2.0000      -2.534328       -68.9626 
  26   2.0000      -2.534315       -68.9622 
  27   2.0000      -2.533987       -68.9533 
  28   2.0000      -2.533982       -68.9531 
  29   2.0000      -0.813721       -22.1425 
  30   2.0000      -0.665524       -18.1098 
  31   2.0000      -0.650240       -17.6939 
  32   2.0000      -0.437562       -11.9067 
  33   2.0000      -0.436427       -11.8758 
  34   2.0000      -0.388026       -10.5587 
  35   2.0000      -0.282652        -7.6914 
  36   2.0000      -0.282199        -7.6790 
  37   2.0000      -0.213621        -5.8129 
  38   2.0000      -0.213150        -5.8001 
  39   2.0000      -0.212921        -5.7939 
  40   0.0000       0.024431         0.6648 
  41   0.0000       0.110237         2.9997 
  42   0.0000       0.148662         4.0453 
  43   0.0000       0.165961         4.5160 
  44   0.0000       0.355129         9.6635 
  45   0.0000       0.382447        10.4069 
  46   0.0000       0.405442        11.0326 
  47   0.0000       0.432100        11.7580 
  48   0.0000       0.446828        12.1588 
  49   0.0000       0.547444        14.8967 
  50   0.0000       0.547624        14.9016 
  51   0.0000       0.601018        16.3545 
  52   0.0000       0.603807        16.4304 
  53   0.0000       0.613188        16.6857 
  54   0.0000       0.619432        16.8556 
  55   0.0000       0.635621        17.2961 
  56   0.0000       0.636279        17.3140 
  57   0.0000       0.636631        17.3236 
  58   0.0000       0.639294        17.3961 
  59   0.0000       0.677798        18.4438 
  60   0.0000       0.679581        18.4923 
  61   0.0000       0.682461        18.5707 
  62   0.0000       0.700227        19.0541 
  63   0.0000       0.705985        19.2108 
  64   0.0000       0.716064        19.4851 
  65   0.0000       0.741353        20.1732 
  66   0.0000       0.790267        21.5043 
  67   0.0000       0.931338        25.3430 
  68   0.0000       1.052017        28.6268 
  69   0.0000       1.249487        34.0003 
  70   0.0000       1.255697        34.1693 
  71   0.0000       1.521497        41.4020 
  72   0.0000       1.728250        47.0281 
  73   0.0000       1.730725        47.0954 
  74   0.0000       1.826382        49.6984 
  75   0.0000       1.974812        53.7374 
  76   0.0000       1.992483        54.2182 
  77   0.0000       2.153292        58.5941 
  78   0.0000       2.413588        65.6771 
  79   0.0000       2.422671        65.9242 
  80   0.0000       2.724594        74.1400 
  81   0.0000       2.903282        79.0023 
  82   0.0000       2.909517        79.1720 
  83   0.0000       3.469242        94.4029 
  84   0.0000       3.469839        94.4191 
  85   0.0000       3.551528        96.6420 
  86   0.0000       3.551867        96.6512 
  87   0.0000       3.564147        96.9854 
  88   0.0000       3.564216        96.9873 
  89   0.0000       3.564343        96.9907 
  90   0.0000       3.565058        97.0102 
  91   0.0000       3.604740        98.0900 
  92   0.0000       3.772020       102.6419 

                    ********************************
                    * MULLIKEN POPULATION ANALYSIS *
                    ********************************

-----------------------
MULLIKEN ATOMIC CHARGES
-----------------------
   0 C :   -0.140338
   1 Br:   -0.223689
   2 H :    0.109313
   3 H :    0.113360
   4 H :    0.085399
   5 Br:   -0.944044
Sum of atomic charges:   -1.0000000

--------------------------------
MULLIKEN REDUCED ORBITAL CHARGES
--------------------------------
  0 C s       :     3.148966  s :     3.148966
      pz      :     1.061016  p :     2.965030
      px      :     0.843338
      py      :     1.060675
      dz2     :     0.006912  d :     0.026343
      dxz     :     0.004156
      dyz     :     0.003373
      dx2y2   :     0.005044
      dxy     :     0.006857
  1 Brs       :     7.974401  s :     7.974401
      pz      :     5.877684  p :    17.201959
      px      :     5.394357
      py      :     5.929919
      dz2     :     2.006700  d :    10.047329
      dxz     :     2.013541
      dyz     :     2.002342
      dx2y2   :     2.013315
      dxy     :     2.011431
  2 H s       :     0.866616  s :     0.866616
      pz      :     0.006407  p :     0.024072
      px      :     0.004502
      py      :     0.013164
  3 H s       :     0.862557  s :     0.862557
      pz      :     0.005042  p :     0.024083
      px      :     0.008775
      py      :     0.010266
  4 H s       :     0.889044  s :     0.889044
      pz      :     0.016996  p :     0.025557
      px      :     0.004001
      py      :     0.004560
  5 Brs       :     7.997541  s :     7.997541
      pz      :     5.965858  p :    17.946194
      px      :     5.981234
      py      :     5.999102
      dz2     :     2.000104  d :    10.000309
      dxz     :     2.000172
      dyz     :     2.000013
      dx2y2   :     2.000017
      dxy     :     2.000003


                     *******************************
                     * LOEWDIN POPULATION ANALYSIS *
                     *******************************

----------------------
LOEWDIN ATOMIC CHARGES
----------------------
   0 C :   -0.115776
   1 Br:   -0.033941
   2 H :    0.042019
   3 H :    0.041984
   4 H :    0.015632
   5 Br:   -0.949918

-------------------------------
LOEWDIN REDUCED ORBITAL CHARGES
-------------------------------
  0 C s       :     2.918600  s :     2.918600
      pz      :     1.093721  p :     3.133331
      px      :     0.942183
      py      :     1.097426
      dz2     :     0.018147  d :     0.063846
      dxz     :     0.009034
      dyz     :     0.007785
      dx2y2   :     0.011721
      dxy     :     0.017159
  1 Brs       :     7.823505  s :     7.823505
      pz      :     5.858820  p :    17.153790
      px      :     5.385714
      py      :     5.909256
      dz2     :     2.007675  d :    10.056645
      dxz     :     2.016802
      dyz     :     2.002755
      dx2y2   :     2.016172
      dxy     :     2.013241
  2 H s       :     0.887307  s :     0.887307
      pz      :     0.018337  p :     0.070673
      px      :     0.013865
      py      :     0.038471
  3 H s       :     0.887093  s :     0.887093
      pz      :     0.014564  p :     0.070922
      px      :     0.027331
      py      :     0.029028
  4 H s       :     0.907167  s :     0.907167
      pz      :     0.052487  p :     0.077201
      px      :     0.011905
      py      :     0.012809
  5 Brs       :     7.996566  s :     7.996566
      pz      :     5.968519  p :    17.953040
      px      :     5.985289
      py      :     5.999232
      dz2     :     2.000082  d :    10.000313
      dxz     :     2.000197
      dyz     :     2.000010
      dx2y2   :     2.000020
      dxy     :     2.000003


                      *****************************
                      * MAYER POPULATION ANALYSIS *
                      *****************************

  NA   - Mulliken gross atomic population
  ZA   - Total nuclear charge
  QA   - Mulliken gross atomic charge
  VA   - Mayer's total valence
  BVA  - Mayer's bonded valence
  FA   - Mayer's free valence

  ATOM       NA         ZA         QA         VA         BVA        FA
  0 C      6.1403     6.0000    -0.1403     3.8460     3.8460    -0.0000
  1 Br    35.2237    35.0000    -0.2237     1.0060     1.0060     0.0000
  2 H      0.8907     1.0000     0.1093     0.9734     0.9734     0.0000
  3 H      0.8866     1.0000     0.1134     0.9718     0.9718    -0.0000
  4 H      0.9146     1.0000     0.0854     1.0609     1.0609    -0.0000
  5 Br    35.9440    35.0000    -0.9440     0.1142     0.1142    -0.0000

  Mayer bond orders larger than 0.100000
B(  0-C ,  1-Br) :   0.9858 B(  0-C ,  2-H ) :   0.9683 B(  0-C ,  3-H ) :   0.9675 
B(  0-C ,  4-H ) :   0.9397 B(  4-H ,  5-Br) :   0.1205 


------------------
HIRSHFELD ANALYSIS
------------------

Total integrated alpha density =     40.001253525
Total integrated beta density  =     40.001253525

  ATOM     CHARGE      SPIN    
   0 C   -0.030143    0.000000
   1 Br  -0.158116    0.000000
   2 H    0.050553    0.000000
   3 H    0.049612    0.000000
   4 H    0.017186    0.000000
   5 Br  -0.931599    0.000000

  TOTAL  -1.002507    0.000000

-------
TIMINGS
-------

Total SCF time: 0 days 0 hours 0 min 3 sec 

Total time                  ....       3.106 sec
Sum of individual times     ....       2.917 sec  ( 93.9%)

Fock matrix formation       ....       2.500 sec  ( 80.5%)
  Split-RI-J                ....       0.499 sec  ( 20.0% of F)
  Chain of spheres X        ....       0.967 sec  ( 38.7% of F)
  COS-X 1 center corr.      ....       0.000 sec  (  0.0% of F)
  XC integration            ....       0.087 sec  (  3.5% of F)
    Basis function eval.    ....       0.032 sec  ( 36.6% of XC)
    Density eval.           ....       0.016 sec  ( 18.1% of XC)
    XC-Functional eval.     ....       0.012 sec  ( 13.9% of XC)
    XC-Potential eval.      ....       0.015 sec  ( 17.1% of XC)
Diagonalization             ....       0.001 sec  (  0.0%)
Density matrix formation    ....       0.001 sec  (  0.0%)
Population analysis         ....       0.011 sec  (  0.4%)
Initial guess               ....       0.005 sec  (  0.2%)
Orbital Transformation      ....       0.000 sec  (  0.0%)
Orbital Orthonormalization  ....       0.001 sec  (  0.0%)
DIIS solution               ....       0.000 sec  (  0.0%)
SOSCF solution              ....       0.002 sec  (  0.1%)
Grid generation             ....       0.397 sec  ( 12.8%)


-------------------------------------------------------------------------------
                          DFT DISPERSION CORRECTION                            
                                                                               
                              DFTD3 V3.1  Rev 1                                
                          USING Becke-Johnson damping                          
-------------------------------------------------------------------------------
The PBE0 functional is recognized
Active option DFTDOPT                   ...         4   

molecular C6(AA) [au] = 1257.071865 


            DFT-D V3
 parameters
 s6 scaling factor         :     1.0000 
 a1 scaling factor         :     0.4145 
 s8 scaling factor         :     1.2177 
 a2 scaling factor         :     4.8593 
 ad hoc parameters k1-k3   :    16.0000     1.3333    -4.0000 

 Edisp/kcal,au: -2.070730028755  -0.003299917999 
 E6   /kcal   :  -1.174974507 
 E8   /kcal   :  -0.895755522 
 % E8         :  43.257957790 

-------------------------   ----------------
Dispersion correction           -0.003299918
-------------------------   ----------------


-------------------------   --------------------
FINAL SINGLE POINT ENERGY     -5187.095137697023
-------------------------   --------------------

                                *** OPTIMIZATION RUN DONE ***

                            ***************************************
                            *     ORCA property calculations      *
                            ***************************************

                                    ---------------------
                                    Active property flags
                                    ---------------------
   (+) Dipole Moment


------------------------------------------------------------------------------
                       ORCA ELECTRIC PROPERTIES CALCULATION
------------------------------------------------------------------------------

Dipole Moment Calculation                       ... on
Quadrupole Moment Calculation                   ... off
Polarizability Calculation                      ... off
GBWName                                         ... manual_reactants_327.gbw
Electron density file                           ... manual_reactants_327.scfp
The origin for moment calculation is the CENTER OF MASS  = ( 0.221967, -0.324201  1.647857)

-------------
DIPOLE MOMENT
-------------
                                X             Y             Z
Electronic contribution:      7.00445       1.16649       1.76058
Nuclear contribution   :     -7.96518      -0.60159      -5.42741
                        -----------------------------------------
Total Dipole Moment    :     -0.96073       0.56491      -3.66684
                        -----------------------------------------
Magnitude (a.u.)       :      3.83247
Magnitude (Debye)      :      9.74136



--------------------
Rotational spectrum 
--------------------
 
Rotational constants in cm-1:     0.370895     0.021216     0.020146 
Rotational constants in MHz : 11119.151764   636.032721   603.974224 

 Dipole components along the rotational axes: 
x,y,z [a.u.] :    -3.738203     0.844742     0.007676 
x,y,z [Debye]:    -9.501756     2.147164     0.019510 

 
[1631282721.910913] [comp0805:37515:0]            sys.c:618  UCX  ERROR shmget(size=2097152 flags=0xfb0) for mm_recv_desc failed: Operation not permitted, please check shared memory limits by 'ipcs -l'
[1631282721.912165] [comp0805:37517:0]            sys.c:618  UCX  ERROR shmget(size=2097152 flags=0xfb0) for mm_recv_desc failed: Operation not permitted, please check shared memory limits by 'ipcs -l'
[1631282721.912436] [comp0805:37518:0]            sys.c:618  UCX  ERROR shmget(size=2097152 flags=0xfb0) for mm_recv_desc failed: Operation not permitted, please check shared memory limits by 'ipcs -l'
[1631282721.913646] [comp0805:37516:0]            sys.c:618  UCX  ERROR shmget(size=2097152 flags=0xfb0) for mm_recv_desc failed: Operation not permitted, please check shared memory limits by 'ipcs -l'
[1631282721.921286] [comp0805:37515:0]            sys.c:618  UCX  ERROR shmget(size=2097152 flags=0xb80) for ucp_am_bufs failed: Operation not permitted, please check shared memory limits by 'ipcs -l'
[1631282721.922156] [comp0805:37518:0]            sys.c:618  UCX  ERROR shmget(size=2097152 flags=0xb80) for ucp_am_bufs failed: Operation not permitted, please check shared memory limits by 'ipcs -l'
[1631282721.922152] [comp0805:37516:0]            sys.c:618  UCX  ERROR shmget(size=2097152 flags=0xb80) for ucp_am_bufs failed: Operation not permitted, please check shared memory limits by 'ipcs -l'
[1631282721.922804] [comp0805:37517:0]            sys.c:618  UCX  ERROR shmget(size=2097152 flags=0xb80) for ucp_am_bufs failed: Operation not permitted, please check shared memory limits by 'ipcs -l'

Timings for individual modules:

Sum of individual times         ...      214.495 sec (=   3.575 min)
GTO integral calculation        ...       29.099 sec (=   0.485 min)  13.6 %
SCF iterations                  ...      132.815 sec (=   2.214 min)  61.9 %
SCF Gradient evaluation         ...       49.822 sec (=   0.830 min)  23.2 %
Geometry relaxation             ...        2.759 sec (=   0.046 min)   1.3 %
                             ****ORCA TERMINATED NORMALLY****
TOTAL RUN TIME: 0 days 0 hours 3 minutes 38 seconds 677 msec
