
                                 *****************
                                 * O   R   C   A *
                                 *****************

           --- An Ab Initio, DFT and Semiempirical electronic structure package ---

                  #######################################################
                  #                        -***-                        #
                  #          Department of theory and spectroscopy      #
                  #               Directorship: Frank Neese             #
                  #        Max Planck Institute fuer Kohlenforschung    #
                  #                Kaiser Wilhelm Platz 1               #
                  #                 D-45470 Muelheim/Ruhr               #
                  #                      Germany                        #
                  #                                                     #
                  #                  All rights reserved                #
                  #                        -***-                        #
                  #######################################################


                         Program Version 4.2.1 -  RELEASE  -


 With contributions from (in alphabetic order):
   Daniel Aravena         : Magnetic Suceptibility
   Michael Atanasov       : Ab Initio Ligand Field Theory (pilot matlab implementation)
   Alexander A. Auer      : GIAO ZORA, VPT2
   Ute Becker             : Parallelization
   Giovanni Bistoni       : ED, misc. LED, open-shell LED, HFLD
   Martin Brehm           : Molecular dynamics
   Dmytro Bykov           : SCF Hessian
   Vijay G. Chilkuri      : MRCI spin determinant printing, contributions to CSF-ICE
   Dipayan Datta          : RHF DLPNO-CCSD density
   Achintya Kumar Dutta   : EOM-CC, STEOM-CC
   Dmitry Ganyushin       : Spin-Orbit,Spin-Spin,Magnetic field MRCI
   Miquel Garcia          : C-PCM Hessian, Gaussian charge scheme
   Yang Guo               : DLPNO-NEVPT2, CIM, IAO-localization
   Andreas Hansen         : Spin unrestricted coupled pair/coupled cluster methods
   Benjamin Helmich-Paris : CASSCF linear response (MC-RPA)
   Lee Huntington         : MR-EOM, pCC
   Robert Izsak           : Overlap fitted RIJCOSX, COSX-SCS-MP3, EOM
   Christian Kollmar      : KDIIS, OOCD, Brueckner-CCSD(T), CCSD density
   Simone Kossmann        : Meta GGA functionals, TD-DFT gradient, OOMP2, MP2 Hessian
   Martin Krupicka        : AUTO-CI
   Lucas Lang             : DCDCAS
   Dagmar Lenk            : GEPOL surface, SMD
   Dimitrios Liakos       : Extrapolation schemes; Compound Job, initial MDCI parallelization
   Dimitrios Manganas     : Further ROCIS development; embedding schemes
   Dimitrios Pantazis     : SARC Basis sets
   Taras Petrenko         : DFT Hessian,TD-DFT gradient, ASA, ECA, R-Raman, ABS, FL, XAS/XES, NRVS
   Peter Pinski           : DLPNO-MP2, DLPNO-MP2 Gradient
   Christoph Reimann      : Effective Core Potentials
   Marius Retegan         : Local ZFS, SOC
   Christoph Riplinger    : Optimizer, TS searches, QM/MM, DLPNO-CCSD(T), (RO)-DLPNO pert. Triples
   Tobias Risthaus        : Range-separated hybrids, TD-DFT gradient, RPA, STAB
   Michael Roemelt        : Original ROCIS implementation
   Masaaki Saitow         : Open-shell DLPNO-CCSD energy and density
   Barbara Sandhoefer     : DKH picture change effects
   Avijit Sen             : IP-ROCIS
   Kantharuban Sivalingam : CASSCF convergence, NEVPT2, FIC-MRCI
   Bernardo de Souza      : ESD, SOC TD-DFT
   Georgi Stoychev        : AutoAux, RI-MP2 NMR
   Willem Van den Heuvel  : Paramagnetic NMR
   Boris Wezisla          : Elementary symmetry handling
   Frank Wennmohs         : Technical directorship


 We gratefully acknowledge several colleagues who have allowed us to
 interface, adapt or use parts of their codes:
   Stefan Grimme, W. Hujo, H. Kruse,             : VdW corrections, initial TS optimization,
                  C. Bannwarth                     DFT functionals, gCP, sTDA/sTD-DF
   Ed Valeev, F. Pavosevic, A. Kumar             : LibInt (2-el integral package), F12 methods
   Garnet Chan, S. Sharma, J. Yang, R. Olivares  : DMRG
   Ulf Ekstrom                                   : XCFun DFT Library
   Mihaly Kallay                                 : mrcc  (arbitrary order and MRCC methods)
   Andreas Klamt, Michael Diedenhofen            : otool_cosmo (COSMO solvation model)
   Jiri Pittner, Ondrej Demel                    : Mk-CCSD
   Frank Weinhold                                : gennbo (NPA and NBO analysis)
   Christopher J. Cramer and Donald G. Truhlar   : smd solvation model
   Lars Goerigk                                  : TD-DFT with DH, B97 family of functionals
   V. Asgeirsson, H. Jonsson                     : NEB implementation
   FAccTs GmbH                                   : IRC, NEB, NEB-TS, Multilevel, MM, QM/MM, CI optimization
   S Lehtola, MJT Oliveira, MAL Marques          : LibXC Library


 Your calculation uses the libint2 library for the computation of 2-el integrals
 For citations please refer to: http://libint.valeyev.net

 Your ORCA version has been built with support for libXC version: 4.2.3
 For citations please refer to: https://tddft.org/programs/libxc/

 This ORCA versions uses:
   CBLAS   interface :  Fast vector & matrix operations
   LAPACKE interface :  Fast linear algebra routines
   SCALAPACK package :  Parallel linear algebra routines


Your calculation utilizes the atom-pairwise dispersion correction
with the Becke-Johnson damping scheme (D3BJ)
Cite in your paper:
S.Grimme, S.Ehrlich, L.Goerigk, J Comput Chem, (2011), 32, 1456–1465 
S.Grimme, J.Antony, S.Ehrlich and H.Krieg, J.Chem.Phys., 132, (2010), 154104 
   

----- Orbital basis set information -----
Your calculation utilizes the basis: def2-SVP
   F. Weigend and R. Ahlrichs, Phys. Chem. Chem. Phys. 7, 3297 (2005).

----- AuxJ basis set information -----
Your calculation utilizes the auxiliary basis: def2/J
   F. Weigend, Phys. Chem. Chem. Phys. 8, 1057 (2006).

================================================================================
                                        WARNINGS
                       Please study these warnings very carefully!
================================================================================


WARNING: Geometry Optimization
  ===> : Switching off AutoStart
         For restart on a previous wavefunction, please use MOREAD

INFO   : the flag for use of LIBINT has been found!

================================================================================
                                       INPUT FILE
================================================================================
NAME = manual_reactants_331.inp
|  1> ! Opt PBE0 RIJCOSX D3BJ def2-SVP def2/J CPCM(Acetone)
|  2> %cpcm
|  3> surfacetype vdw_gaussian
|  4> end
|  5> %geom MaxIter 100 end
|  6> %output 
|  7> xyzfile=True 
|  8> end 
|  9> %scf 
| 10> maxiter 250 
| 11> end
| 12> %output
| 13> Print[P_Hirshfeld] = 1
| 14> end
| 15> % maxcore
| 16> 4000
| 17> %pal nprocs 4
| 18> end
| 19> *xyz -1 1
| 20> C    -0.57310  -1.88711   0.55640
| 21> C    -1.35834  -1.03637  -0.44250
| 22> C    -2.01581   0.14191   0.27573
| 23> C    -2.44196  -1.89376  -1.11232
| 24> C    -0.46508  -0.55869  -1.58531
| 25> Br    1.03671   0.58118  -1.04391
| 26> H    -0.02041  -2.69338   0.04792
| 27> H    -1.26464  -2.35025   1.27852
| 28> H     0.13361  -1.27041   1.13344
| 29> H    -2.53707   0.80304  -0.43596
| 30> H    -2.75753  -0.22964   1.00066
| 31> H    -1.27592   0.72963   0.84088
| 32> H    -2.00386  -2.75081  -1.64785
| 33> H    -3.13241  -2.28595  -0.34934
| 34> H    -3.03172  -1.30301  -1.83188
| 35> H    -0.00208  -1.40587  -2.10866
| 36> H    -1.03066   0.04815  -2.30474
| 37> Br    0.46667   0.82462   3.25910
| 38> *
| 39> 
| 40>                          ****END OF INPUT****
================================================================================

                       *****************************
                       * Geometry Optimization Run *
                       *****************************

Geometry optimization settings:
Update method            Update   .... BFGS
Choice of coordinates    CoordSys .... Z-matrix Internals
Initial Hessian          InHess   .... Almoef's Model

Convergence Tolerances:
Energy Change            TolE     ....  5.0000e-06 Eh
Max. Gradient            TolMAXG  ....  3.0000e-04 Eh/bohr
RMS Gradient             TolRMSG  ....  1.0000e-04 Eh/bohr
Max. Displacement        TolMAXD  ....  4.0000e-03 bohr
RMS Displacement         TolRMSD  ....  2.0000e-03 bohr
Strict Convergence                ....  False
------------------------------------------------------------------------------
                        ORCA OPTIMIZATION COORDINATE SETUP
------------------------------------------------------------------------------

The optimization will be done in new redundant internal coordinates
Making redundant internal coordinates   ...  (new redundants) done
Evaluating the initial hessian          ...  (Almloef) done
Evaluating the coordinates              ...  done
Calculating the B-matrix                .... done
Calculating the G-matrix                .... done
Diagonalizing the G-matrix              .... done
The first mode is                       ....   47
The number of degrees of freedom        ....   48

    -----------------------------------------------------------------
                    Redundant Internal Coordinates


    -----------------------------------------------------------------
         Definition                    Initial Value    Approx d2E/dq
    -----------------------------------------------------------------
      1. B(C   1,C   0)                  1.5291         0.374805   
      2. B(C   2,C   1)                  1.5285         0.375570   
      3. B(C   3,C   1)                  1.5356         0.365994   
      4. B(C   4,C   1)                  1.5271         0.377543   
      5. B(Br  5,C   4)                  1.9616         0.257226   
      6. B(H   6,C   0)                  1.1019         0.344751   
      7. B(H   7,C   0)                  1.1019         0.344697   
      8. B(H   8,C   0)                  1.1012         0.345532   
      9. B(H   9,C   2)                  1.1024         0.344052   
     10. B(H  10,C   2)                  1.1017         0.344963   
     11. B(H  11,C   2)                  1.1010         0.345812   
     12. B(H  12,C   3)                  1.1015         0.345229   
     13. B(H  13,C   3)                  1.1012         0.345566   
     14. B(H  14,C   3)                  1.1021         0.344476   
     15. B(H  15,C   4)                  1.0982         0.349452   
     16. B(H  16,C   4)                  1.0981         0.349606   
     17. B(Br 17,H  11)                  2.9822         0.001159   
     18. B(Br 17,H   8)                  3.0031         0.001073   
     19. A(H   7,C   0,H   8)          107.1414         0.286993   
     20. A(C   1,C   0,H   8)          111.1178         0.322303   
     21. A(H   6,C   0,H   7)          108.0390         0.286891   
     22. A(H   6,C   0,H   8)          109.2499         0.287000   
     23. A(C   1,C   0,H   6)          111.2991         0.322184   
     24. A(C   1,C   0,H   7)          109.8566         0.322175   
     25. A(C   2,C   1,C   3)          109.3801         0.362411   
     26. A(C   3,C   1,C   4)          105.1290         0.362735   
     27. A(C   2,C   1,C   4)          111.2294         0.364340   
     28. A(C   0,C   1,C   4)          111.2545         0.364213   
     29. A(C   0,C   1,C   3)          109.6753         0.362285   
     30. A(C   0,C   1,C   2)          110.0478         0.363887   
     31. A(C   1,C   2,H   9)          111.2431         0.322184   
     32. A(C   1,C   2,H  10)          109.8038         0.322324   
     33. A(H   9,C   2,H  11)          109.2078         0.286945   
     34. A(C   1,C   2,H  11)          111.3224         0.322454   
     35. A(H   9,C   2,H  10)          107.9818         0.286835   
     36. A(H  10,C   2,H  11)          107.1395         0.287064   
     37. A(H  13,C   3,H  14)          107.9239         0.286969   
     38. A(H  12,C   3,H  14)          108.2091         0.286925   
     39. A(C   1,C   3,H  14)          111.2931         0.320889   
     40. A(H  12,C   3,H  13)          108.0065         0.287066   
     41. A(C   1,C   3,H  13)          109.8209         0.321055   
     42. A(C   1,C   3,H  12)          111.4598         0.321004   
     43. A(C   1,C   4,Br  5)          115.0270         0.363208   
     44. A(Br  5,C   4,H  16)          104.7162         0.322068   
     45. A(C   1,C   4,H  16)          111.2163         0.323309   
     46. A(Br  5,C   4,H  15)          104.8941         0.322045   
     47. A(H  15,C   4,H  16)          109.3455         0.288135   
     48. A(C   1,C   4,H  15)          111.2194         0.323285   
     49. A(C   0,H   8,Br 17)          146.3813         0.148914   
     50. A(C   2,H  11,Br 17)          145.6801         0.149975   
     51. A(H   8,Br 17,H  11)           48.6242         0.107438   
     52. D(C   3,C   1,C   0,H   8)   -173.5372         0.011213   
     53. D(C   4,C   1,C   0,H   8)     70.5828         0.011213   
     54. D(C   4,C   1,C   0,H   7)   -171.0317         0.011213   
     55. D(C   3,C   1,C   0,H   6)     64.4635         0.011213   
     56. D(C   2,C   1,C   0,H   7)     65.2209         0.011213   
     57. D(C   2,C   1,C   0,H   8)    -53.1647         0.011213   
     58. D(C   3,C   1,C   0,H   7)    -55.1516         0.011213   
     59. D(C   2,C   1,C   0,H   6)   -175.1640         0.011213   
     60. D(C   4,C   1,C   0,H   6)    -51.4166         0.011213   
     61. D(H  10,C   2,C   1,C   3)     56.5825         0.011256   
     62. D(H   9,C   2,C   1,C   4)     52.7961         0.011256   
     63. D(H   9,C   2,C   1,C   3)    -62.8913         0.011256   
     64. D(H   9,C   2,C   1,C   0)    176.5581         0.011256   
     65. D(H  10,C   2,C   1,C   4)    172.2699         0.011256   
     66. D(H  11,C   2,C   1,C   4)    -69.2537         0.011256   
     67. D(H  11,C   2,C   1,C   3)    175.0589         0.011256   
     68. D(H  11,C   2,C   1,C   0)     54.5083         0.011256   
     69. D(H  10,C   2,C   1,C   0)    -63.9681         0.011256   
     70. D(H  14,C   3,C   1,C   2)     58.6647         0.010723   
     71. D(H  14,C   3,C   1,C   0)    179.4422         0.010723   
     72. D(H  13,C   3,C   1,C   4)    179.6995         0.010723   
     73. D(H  13,C   3,C   1,C   2)    -60.7797         0.010723   
     74. D(H  13,C   3,C   1,C   0)     59.9978         0.010723   
     75. D(H  12,C   3,C   1,C   4)     60.0459         0.010723   
     76. D(H  12,C   3,C   1,C   2)    179.5667         0.010723   
     77. D(H  14,C   3,C   1,C   4)    -60.8561         0.010723   
     78. D(H  12,C   3,C   1,C   0)    -59.6558         0.010723   
     79. D(H  15,C   4,C   1,C   0)     57.5938         0.011368   
     80. D(Br  5,C   4,C   1,C   3)    179.8978         0.011368   
     81. D(Br  5,C   4,C   1,C   2)     61.6166         0.011368   
     82. D(Br  5,C   4,C   1,C   0)    -61.4562         0.011368   
     83. D(H  16,C   4,C   1,C   3)     61.0828         0.011368   
     84. D(H  16,C   4,C   1,C   2)    -57.1984         0.011368   
     85. D(H  16,C   4,C   1,C   0)    179.7288         0.011368   
     86. D(H  15,C   4,C   1,C   3)    -61.0522         0.011368   
     87. D(H  15,C   4,C   1,C   2)   -179.3335         0.011368   
     88. D(Br 17,H   8,C   0,H   7)    -49.0892         0.109881   
     89. D(Br 17,H   8,C   0,H   6)   -165.8944         0.109881   
     90. D(Br 17,H   8,C   0,C   1)     70.9221         0.109881   
     91. D(Br 17,H  11,C   2,H  10)     46.2128         0.110097   
     92. D(Br 17,H  11,C   2,H   9)    162.9275         0.110097   
     93. D(Br 17,H  11,C   2,C   1)    -73.8516         0.110097   
     94. D(H   8,Br 17,H  11,C   2)     51.3349         0.001500   
     95. D(H  11,Br 17,H   8,C   0)    -49.9581         0.001500   
    -----------------------------------------------------------------

Number of atoms                         .... 18
Number of degrees of freedom            .... 95

         *************************************************************
         *                GEOMETRY OPTIMIZATION CYCLE   1            *
         *************************************************************
---------------------------------
CARTESIAN COORDINATES (ANGSTROEM)
---------------------------------
  C     -0.573100   -1.887110    0.556400
  C     -1.358340   -1.036370   -0.442500
  C     -2.015810    0.141910    0.275730
  C     -2.441960   -1.893760   -1.112320
  C     -0.465080   -0.558690   -1.585310
  Br     1.036710    0.581180   -1.043910
  H     -0.020410   -2.693380    0.047920
  H     -1.264640   -2.350250    1.278520
  H      0.133610   -1.270410    1.133440
  H     -2.537070    0.803040   -0.435960
  H     -2.757530   -0.229640    1.000660
  H     -1.275920    0.729630    0.840880
  H     -2.003860   -2.750810   -1.647850
  H     -3.132410   -2.285950   -0.349340
  H     -3.031720   -1.303010   -1.831880
  H     -0.002080   -1.405870   -2.108660
  H     -1.030660    0.048150   -2.304740
  Br     0.466670    0.824620    3.259100

----------------------------
CARTESIAN COORDINATES (A.U.)
----------------------------
  NO LB      ZA    FRAG     MASS         X           Y           Z
   0 C     6.0000    0    12.011   -1.083002   -3.566121    1.051444
   1 C     6.0000    0    12.011   -2.566891   -1.958455   -0.836204
   2 C     6.0000    0    12.011   -3.809329    0.268171    0.521054
   3 C     6.0000    0    12.011   -4.614636   -3.578688   -2.101980
   4 C     6.0000    0    12.011   -0.878874   -1.055771   -2.995802
   5 Br   35.0000    0    79.900    1.959098    1.098271   -1.972704
   6 H     1.0000    0     1.008   -0.038569   -5.089751    0.090556
   7 H     1.0000    0     1.008   -2.389823   -4.441329    2.416053
   8 H     1.0000    0     1.008    0.252486   -2.400727    2.141891
   9 H     1.0000    0     1.008   -4.794367    1.517526   -0.823845
  10 H     1.0000    0     1.008   -5.210977   -0.433957    1.890973
  11 H     1.0000    0     1.008   -2.411139    1.378801    1.589033
  12 H     1.0000    0     1.008   -3.786747   -5.198278   -3.113985
  13 H     1.0000    0     1.008   -5.919397   -4.319819   -0.660157
  14 H     1.0000    0     1.008   -5.729121   -2.462332   -3.461752
  15 H     1.0000    0     1.008   -0.003931   -2.656709   -3.984790
  16 H     1.0000    0     1.008   -1.947665    0.090990   -4.355327
  17 Br   35.0000    0    79.900    0.881878    1.558306    6.158806

--------------------------------
INTERNAL COORDINATES (ANGSTROEM)
--------------------------------
 C      0   0   0     0.000000000000     0.00000000     0.00000000
 C      1   0   0     1.529104841141     0.00000000     0.00000000
 C      2   1   0     1.528549931209   110.04783893     0.00000000
 C      2   1   3     1.535580915777   109.67531957   239.62743643
 C      2   1   3     1.527123539895   111.25448212   123.74742410
 Br     5   2   1     1.961578645122   115.02703482   298.54384858
 H      1   2   3     1.101857277237   111.29905115   184.83601631
 H      1   2   3     1.101899961703   109.85660920    65.22092352
 H      1   2   3     1.101241606415   111.11777097   306.83533820
 H      3   2   1     1.102409869604   111.24313344   176.55807751
 H      3   2   1     1.101690276711   109.80377509   296.03191281
 H      3   2   1     1.101020677826   111.32235691    54.50828505
 H      4   2   1     1.101480228329   111.45982227   300.34423077
 H      4   2   1     1.101214183981   109.82085019    59.99784108
 H      4   2   1     1.102074867557   111.29306244   179.44224401
 H      5   2   1     1.098170376080   111.21936875    57.59378676
 H      5   2   1     1.098050566641   111.21626457   179.72884489
 Br    12   3   2     2.982185603982   145.68014578   286.14835131

---------------------------
INTERNAL COORDINATES (A.U.)
---------------------------
 C      0   0   0     0.000000000000     0.00000000     0.00000000
 C      1   0   0     2.889589379809     0.00000000     0.00000000
 C      2   1   0     2.888540752010   110.04783893     0.00000000
 C      2   1   3     2.901827387295   109.67531957   239.62743643
 C      2   1   3     2.885845263065   111.25448212   123.74742410
 Br     5   2   1     3.706846429430   115.02703482   298.54384858
 H      1   2   3     2.082208492646   111.29905115   184.83601631
 H      1   2   3     2.082289154596   109.85660920    65.22092352
 H      1   2   3     2.081045043404   111.11777097   306.83533820
 H      3   2   1     2.083252740883   111.24313344   176.55807751
 H      3   2   1     2.081892907388   109.80377509   296.03191281
 H      3   2   1     2.080627548875   111.32235691    54.50828505
 H      4   2   1     2.081495973471   111.45982227   300.34423077
 H      4   2   1     2.080993222513   109.82085019    59.99784108
 H      4   2   1     2.082619678760   111.29306244   179.44224401
 H      5   2   1     2.075241259177   111.21936875    57.59378676
 H      5   2   1     2.075014852148   111.21626457   179.72884489
 Br    12   3   2     5.635514072049   145.68014578   286.14835131

---------------------
BASIS SET INFORMATION
---------------------
There are 3 groups of distinct atoms

 Group   1 Type C   : 7s4p1d contracted to 3s2p1d pattern {511/31/1}
 Group   2 Type Br  : 14s10p6d contracted to 5s4p3d pattern {63311/5311/411}
 Group   3 Type H   : 4s1p contracted to 2s1p pattern {31/1}

Atom   0C    basis set group =>   1
Atom   1C    basis set group =>   1
Atom   2C    basis set group =>   1
Atom   3C    basis set group =>   1
Atom   4C    basis set group =>   1
Atom   5Br   basis set group =>   2
Atom   6H    basis set group =>   3
Atom   7H    basis set group =>   3
Atom   8H    basis set group =>   3
Atom   9H    basis set group =>   3
Atom  10H    basis set group =>   3
Atom  11H    basis set group =>   3
Atom  12H    basis set group =>   3
Atom  13H    basis set group =>   3
Atom  14H    basis set group =>   3
Atom  15H    basis set group =>   3
Atom  16H    basis set group =>   3
Atom  17Br   basis set group =>   2
---------------------------------
AUXILIARY/J BASIS SET INFORMATION
---------------------------------
There are 3 groups of distinct atoms

 Group   1 Type C   : 12s5p4d2f1g contracted to 6s4p3d1f1g pattern {711111/2111/211/2/1}
 Group   2 Type Br  : 19s5p5d3f1g contracted to 8s4p3d2f1g pattern {121111111/2111/311/21/1}
 Group   3 Type H   : 5s2p1d contracted to 3s1p1d pattern {311/2/1}

Atom   0C    basis set group =>   1
Atom   1C    basis set group =>   1
Atom   2C    basis set group =>   1
Atom   3C    basis set group =>   1
Atom   4C    basis set group =>   1
Atom   5Br   basis set group =>   2
Atom   6H    basis set group =>   3
Atom   7H    basis set group =>   3
Atom   8H    basis set group =>   3
Atom   9H    basis set group =>   3
Atom  10H    basis set group =>   3
Atom  11H    basis set group =>   3
Atom  12H    basis set group =>   3
Atom  13H    basis set group =>   3
Atom  14H    basis set group =>   3
Atom  15H    basis set group =>   3
Atom  16H    basis set group =>   3
Atom  17Br   basis set group =>   2
[1631282519.114564] [comp0811:50625:0]            sys.c:618  UCX  ERROR shmget(size=2097152 flags=0xfb0) for mm_recv_desc failed: Operation not permitted, please check shared memory limits by 'ipcs -l'
[1631282519.121135] [comp0811:50620:0]            sys.c:618  UCX  ERROR shmget(size=2097152 flags=0xfb0) for mm_recv_desc failed: Operation not permitted, please check shared memory limits by 'ipcs -l'
[1631282519.121177] [comp0811:50623:0]            sys.c:618  UCX  ERROR shmget(size=2097152 flags=0xfb0) for mm_recv_desc failed: Operation not permitted, please check shared memory limits by 'ipcs -l'
[1631282519.135692] [comp0811:50626:0]            sys.c:618  UCX  ERROR shmget(size=2097152 flags=0xfb0) for mm_recv_desc failed: Operation not permitted, please check shared memory limits by 'ipcs -l'
[1631282519.151422] [comp0811:50620:0]            sys.c:618  UCX  ERROR shmget(size=2097152 flags=0xb80) for ucp_am_bufs failed: Operation not permitted, please check shared memory limits by 'ipcs -l'
[1631282519.152057] [comp0811:50625:0]            sys.c:618  UCX  ERROR shmget(size=2097152 flags=0xb80) for ucp_am_bufs failed: Operation not permitted, please check shared memory limits by 'ipcs -l'
[1631282519.156595] [comp0811:50623:0]            sys.c:618  UCX  ERROR shmget(size=2097152 flags=0xb80) for ucp_am_bufs failed: Operation not permitted, please check shared memory limits by 'ipcs -l'
[1631282519.156649] [comp0811:50626:0]            sys.c:618  UCX  ERROR shmget(size=2097152 flags=0xb80) for ucp_am_bufs failed: Operation not permitted, please check shared memory limits by 'ipcs -l'


           ************************************************************
           *        Program running with 4 parallel MPI-processes     *
           *              working on a common directory               *
           ************************************************************
------------------------------------------------------------------------------
                           ORCA GTO INTEGRAL CALCULATION
                           -- RI-GTO INTEGRALS CHOSEN --
------------------------------------------------------------------------------

                         BASIS SET STATISTICS AND STARTUP INFO

Gaussian basis set:
 # of primitive gaussian shells          ...  175
 # of primitive gaussian functions       ...  345
 # of contracted shells                  ...   87
 # of contracted basis functions         ...  189
 Highest angular momentum                ...    2
 Maximum contraction depth               ...    6
Auxiliary gaussian basis set:
 # of primitive gaussian shells          ...  274
 # of primitive gaussian functions       ...  704
 # of contracted shells                  ...  166
 # of contracted aux-basis functions     ...  482
 Highest angular momentum                ...    4
 Maximum contraction depth               ...   12
Ratio of auxiliary to basis functions    ...  2.55
Integral package used                  ... LIBINT
 One Electron integrals                  ... done
 Ordering auxiliary basis shells         ... done
 Integral threshhold             Thresh  ...  2.500e-11
 Primitive cut-off               TCut    ...  2.500e-12
 Pre-screening matrix                    ... done
 Shell pair data                         ... 
 Ordering of the shell pairs             ... done (   0.001 sec) 3410 of 3828 pairs
 Determination of significant pairs      ... done (   0.000 sec)
 Creation of shell pair data             ... done (   0.001 sec)
 Storage of shell pair data              ... done (   0.001 sec)
 Shell pair data done in (   0.002 sec)
 Computing two index integrals           ... done
 Cholesky decomposition of the V-matrix  ... done


Timings:
 Total evaluation time                   ...   0.221 sec (  0.004 min)
 One electron matrix time                ...   0.032 sec (  0.001 min) = 14.3%
 Schwartz matrix evaluation time         ...   0.144 sec (  0.002 min) = 65.0%
 Two index repulsion integral time       ...   0.005 sec (  0.000 min) =  2.3%
 Cholesky decomposition of V             ...   0.003 sec (  0.000 min) =  1.6%
 Three index repulsion integral time     ...   0.000 sec (  0.000 min) =  0.0%

[1631282520.312858] [comp0811:50684:0]            sys.c:618  UCX  ERROR shmget(size=2097152 flags=0xfb0) for mm_recv_desc failed: Operation not permitted, please check shared memory limits by 'ipcs -l'
[1631282520.317366] [comp0811:50681:0]            sys.c:618  UCX  ERROR shmget(size=2097152 flags=0xfb0) for mm_recv_desc failed: Operation not permitted, please check shared memory limits by 'ipcs -l'
[1631282520.336811] [comp0811:50683:0]            sys.c:618  UCX  ERROR shmget(size=2097152 flags=0xfb0) for mm_recv_desc failed: Operation not permitted, please check shared memory limits by 'ipcs -l'
[1631282520.337743] [comp0811:50685:0]            sys.c:618  UCX  ERROR shmget(size=2097152 flags=0xfb0) for mm_recv_desc failed: Operation not permitted, please check shared memory limits by 'ipcs -l'
[1631282520.372412] [comp0811:50681:0]            sys.c:618  UCX  ERROR shmget(size=2097152 flags=0xb80) for ucp_am_bufs failed: Operation not permitted, please check shared memory limits by 'ipcs -l'
[1631282520.373186] [comp0811:50683:0]            sys.c:618  UCX  ERROR shmget(size=2097152 flags=0xb80) for ucp_am_bufs failed: Operation not permitted, please check shared memory limits by 'ipcs -l'
[1631282520.373916] [comp0811:50684:0]            sys.c:618  UCX  ERROR shmget(size=2097152 flags=0xb80) for ucp_am_bufs failed: Operation not permitted, please check shared memory limits by 'ipcs -l'


           ************************************************************
           *        Program running with 4 parallel MPI-processes     *
           *              working on a common directory               *
           ************************************************************
-------------------------------------------------------------------------------
                                 ORCA SCF
-------------------------------------------------------------------------------
[1631282520.377983] [comp0811:50685:0]            sys.c:618  UCX  ERROR shmget(size=2097152 flags=0xb80) for ucp_am_bufs failed: Operation not permitted, please check shared memory limits by 'ipcs -l'

------------
SCF SETTINGS
------------
Hamiltonian:
 Density Functional     Method          .... DFT(GTOs)
 Exchange Functional    Exchange        .... PBE
   PBE kappa parameter   XKappa         ....  0.804000
   PBE mue parameter    XMuePBE         ....  0.219520
 Correlation Functional Correlation     .... PBE
   PBE beta parameter  CBetaPBE         ....  0.066725
 LDA part of GGA corr.  LDAOpt          .... PW91-LDA
 Gradients option       PostSCFGGA      .... off
 Hybrid DFT is turned on
   Fraction HF Exchange ScalHFX         ....  0.250000
   Scaling of DF-GGA-X  ScalDFX         ....  0.750000
   Scaling of DF-GGA-C  ScalDFC         ....  1.000000
   Scaling of DF-LDA-C  ScalLDAC        ....  1.000000
   Perturbative correction              ....  0.000000
   Density functional embedding theory  .... OFF
   NL short-range parameter             ....  6.900000
 RI-approximation to the Coulomb term is turned on
   Number of auxiliary basis functions  .... 482
   RIJ-COSX (HFX calculated with COS-X)).... on


General Settings:
 Integral files         IntName         .... manual_reactants_331
 Hartree-Fock type      HFTyp           .... RHF
 Total Charge           Charge          ....   -1
 Multiplicity           Mult            ....    1
 Number of Electrons    NEL             ....  112
 Basis Dimension        Dim             ....  189
 Nuclear Repulsion      ENuc            ....    747.9796377539 Eh

Convergence Acceleration:
 DIIS                   CNVDIIS         .... on
   Start iteration      DIISMaxIt       ....    12
   Startup error        DIISStart       ....  0.200000
   # of expansion vecs  DIISMaxEq       ....     5
   Bias factor          DIISBfac        ....   1.050
   Max. coefficient     DIISMaxC        ....  10.000
 Newton-Raphson         CNVNR           .... off
 SOSCF                  CNVSOSCF        .... on
   Start iteration      SOSCFMaxIt      ....   150
   Startup grad/error   SOSCFStart      ....  0.003300
 Level Shifting         CNVShift        .... on
   Level shift para.    LevelShift      ....    0.2500
   Turn off err/grad.   ShiftErr        ....    0.0010
 Zerner damping         CNVZerner       .... off
 Static damping         CNVDamp         .... on
   Fraction old density DampFac         ....    0.7000
   Max. Damping (<1)    DampMax         ....    0.9800
   Min. Damping (>=0)   DampMin         ....    0.0000
   Turn off err/grad.   DampErr         ....    0.1000
 Fernandez-Rico         CNVRico         .... off

SCF Procedure:
 Maximum # iterations   MaxIter         ....   250
 SCF integral mode      SCFMode         .... Direct
   Integral package                     .... LIBINT
 Reset frequency        DirectResetFreq ....    20
 Integral Threshold     Thresh          ....  2.500e-11 Eh
 Primitive CutOff       TCut            ....  2.500e-12 Eh

Convergence Tolerance:
 Convergence Check Mode ConvCheckMode   .... Total+1el-Energy
 Convergence forced     ConvForced      .... 0
 Energy Change          TolE            ....  1.000e-08 Eh
 1-El. energy change                    ....  1.000e-05 Eh
 Orbital Gradient       TolG            ....  1.000e-05
 Orbital Rotation angle TolX            ....  1.000e-05
 DIIS Error             TolErr          ....  5.000e-07


Diagonalization of the overlap matrix:
Smallest eigenvalue                        ... 1.566e-03
Time for diagonalization                   ...    0.009 sec
Threshold for overlap eigenvalues          ... 1.000e-08
Number of eigenvalues below threshold      ... 0
Time for construction of square roots      ...    0.003 sec
Total time needed                          ...    0.013 sec

-------------------
DFT GRID GENERATION
-------------------

General Integration Accuracy     IntAcc      ...  4.340
Radial Grid Type                 RadialGrid  ... Gauss-Chebyshev
Angular Grid (max. acc.)         AngularGrid ... Lebedev-110
Angular grid pruning method      GridPruning ... 3 (G Style)
Weight generation scheme         WeightScheme... Becke
Basis function cutoff            BFCut       ...    1.0000e-11
Integration weight cutoff        WCut        ...    1.0000e-14
Grids for H and He will be reduced by one unit

# of grid points (after initial pruning)     ...  22794 (   0.0 sec)
[1631282520.436504] [comp0811:50683:0]            sys.c:618  UCX  ERROR shmget(size=6291456 flags=0xfb0) for mm_recv_desc failed: Operation not permitted, please check shared memory limits by 'ipcs -l'
# of grid points (after weights+screening)   ...  21102 (   0.0 sec)
nearest neighbour list constructed           ...    0.0 sec
Grid point re-assignment to atoms done       ...    0.0 sec
Grid point division into batches done        ...    0.0 sec
Reduced shell lists constructed in    0.1 sec

Total number of grid points                  ...    21102
Total number of batches                      ...      342
Average number of points per batch           ...       61
Average number of grid points per atom       ...     1172
Average number of shells per batch           ...    65.94 (75.80%)
Average number of basis functions per batch  ...   138.61 (73.34%)
Average number of large shells per batch     ...    54.89 (83.23%)
Average number of large basis fcns per batch ...   111.32 (80.31%)
Maximum spatial batch extension              ...  15.03, 17.55, 14.24 au
Average spatial batch extension              ...   0.54,  0.57,  0.57 au

Time for grid setup =    0.130 sec

------------------------------
INITIAL GUESS: MODEL POTENTIAL
------------------------------
Loading Hartree-Fock densities                     ... done
Calculating cut-offs                               ... done
Setting up the integral package                    ... done
Initializing the effective Hamiltonian             ... done
Starting the Coulomb interaction                   ... done (   0.0 sec)
Reading the grid                                   ... done
Mapping shells                                     ... done
Starting the XC term evaluation                    ... done (   0.1 sec)
  promolecular density results
     # of electrons  =    111.000006156
     EX              =   -207.332194005
     EC              =     -4.755998159
     EX+EC           =   -212.088192164
Transforming the Hamiltonian                       ... done (   0.0 sec)
Diagonalizing the Hamiltonian                      ... done (   0.0 sec)
Back transforming the eigenvectors                 ... done (   0.0 sec)
Now organizing SCF variables                       ... done
                      ------------------
                      INITIAL GUESS DONE (   0.3 sec)
                      ------------------
--------------------
COSX GRID GENERATION
--------------------

General Integration Accuracy     IntAcc      ...  3.340
Radial Grid Type                 RadialGrid  ... Gauss-Chebyshev
Angular Grid (max. acc.)         AngularGrid ... Lebedev-50
Angular grid pruning method      GridPruning ... 3 (G Style)
Weight generation scheme         WeightScheme... Becke
Basis function cutoff            BFCut       ...    1.0000e-11
Integration weight cutoff        WCut        ...    1.0000e-14
Grids for H and He will be reduced by one unit

# of grid points (after initial pruning)     ...   8504 (   0.0 sec)
# of grid points (after weights+screening)   ...   7864 (   0.0 sec)
nearest neighbour list constructed           ...    0.0 sec
Grid point re-assignment to atoms done       ...    0.0 sec
Grid point division into batches done        ...    0.0 sec
Reduced shell lists constructed in    0.0 sec

Total number of grid points                  ...     7864
Total number of batches                      ...      133
Average number of points per batch           ...       59
Average number of grid points per atom       ...      437
Average number of shells per batch           ...    67.57 (77.67%)
Average number of basis functions per batch  ...   142.54 (75.42%)
Average number of large shells per batch     ...    57.40 (84.95%)
Average number of large basis fcns per batch ...   117.29 (82.28%)
Maximum spatial batch extension              ...  14.82,  9.47,  8.12 au
Average spatial batch extension              ...   0.63,  0.62,  0.61 au

Overlap Fitting                  UseSFitting ... on
Constructing numerical overlap ... done (      0.0 sec)
Inverting numerical overlap    ... done (      0.0 sec)
Obtaining analytic overlap     ... done (      0.0 sec)
Final contraction and storage  ... done (      0.0 sec)


General Integration Accuracy     IntAcc      ...  3.670
Radial Grid Type                 RadialGrid  ... Gauss-Chebyshev
Angular Grid (max. acc.)         AngularGrid ... Lebedev-50
Angular grid pruning method      GridPruning ... 3 (G Style)
Weight generation scheme         WeightScheme... Becke
Basis function cutoff            BFCut       ...    1.0000e-11
Integration weight cutoff        WCut        ...    1.0000e-14
Grids for H and He will be reduced by one unit

# of grid points (after initial pruning)     ...  10738 (   0.0 sec)
# of grid points (after weights+screening)   ...   9886 (   0.0 sec)
nearest neighbour list constructed           ...    0.0 sec
Grid point re-assignment to atoms done       ...    0.0 sec
Grid point division into batches done        ...    0.0 sec
Reduced shell lists constructed in    0.0 sec

Total number of grid points                  ...     9886
Total number of batches                      ...      164
Average number of points per batch           ...       60
Average number of grid points per atom       ...      549
Average number of shells per batch           ...    67.60 (77.70%)
Average number of basis functions per batch  ...   142.02 (75.14%)
Average number of large shells per batch     ...    56.90 (84.18%)
Average number of large basis fcns per batch ...   115.52 (81.34%)
Maximum spatial batch extension              ...  15.34, 11.90,  9.81 au
Average spatial batch extension              ...   0.54,  0.55,  0.54 au

Overlap Fitting                  UseSFitting ... on
Constructing numerical overlap ... done (      0.0 sec)
Inverting numerical overlap    ... done (      0.0 sec)
Obtaining analytic overlap     ... done (      0.0 sec)
Final contraction and storage  ... done (      0.0 sec)


General Integration Accuracy     IntAcc      ...  4.010
Radial Grid Type                 RadialGrid  ... Gauss-Chebyshev
Angular Grid (max. acc.)         AngularGrid ... Lebedev-110
Angular grid pruning method      GridPruning ... 3 (G Style)
Weight generation scheme         WeightScheme... Becke
Basis function cutoff            BFCut       ...    1.0000e-11
Integration weight cutoff        WCut        ...    1.0000e-14
Grids for H and He will be reduced by one unit

# of grid points (after initial pruning)     ...  19852 (   0.0 sec)
# of grid points (after weights+screening)   ...  18425 (   0.0 sec)
nearest neighbour list constructed           ...    0.0 sec
Grid point re-assignment to atoms done       ...    0.0 sec
Grid point division into batches done        ...    0.0 sec
Reduced shell lists constructed in    0.0 sec

Total number of grid points                  ...    18425
Total number of batches                      ...      296
Average number of points per batch           ...       62
Average number of grid points per atom       ...     1024
Average number of shells per batch           ...    66.55 (76.49%)
Average number of basis functions per batch  ...   139.80 (73.97%)
Average number of large shells per batch     ...    55.59 (83.53%)
Average number of large basis fcns per batch ...   112.87 (80.73%)
Maximum spatial batch extension              ...  13.41, 12.37, 11.45 au
Average spatial batch extension              ...   0.54,  0.56,  0.55 au

Overlap Fitting                  UseSFitting ... on
Constructing numerical overlap ... done (      0.0 sec)
Inverting numerical overlap    ... done (      0.0 sec)
Obtaining analytic overlap     ... done (      0.0 sec)
Final contraction and storage  ... done (      0.0 sec)

Time for X-Grid setup             =    0.247 sec

--------------------
CPCM SOLVATION MODEL
--------------------
CPCM parameters:
  Epsilon                                         ...      20.7000
  Refrac                                          ...       1.3590
  Rsolv                                           ...       1.3000
  Surface type                                    ... GAUSSIAN VDW
  Epsilon function type                           ...         CPCM
Radii:
 Radius for C  used is    3.8550 Bohr (=   2.0400 Ang.)
 Radius for Br used is    4.1952 Bohr (=   2.2200 Ang.)
 Radius for H  used is    2.4944 Bohr (=   1.3200 Ang.)
Calculating surface                               ...        done! (  0.0s)
GEPOL surface points                              ...         1054
GEPOL Volume                                      ...    1311.4702
GEPOL Surface-area                                ...     752.9262
Calculating surface distance matrix               ...        done! (  0.0s)
Performing Cholesky decomposition & store         ...        done! (  0.0s)
Overall time for CPCM initialization              ...                 0.1s
--------------
SCF ITERATIONS
--------------
ITER       Energy         Delta-E        Max-DP      RMS-DP      [F,P]     Damp
               ***  Starting incremental Fock matrix formation  ***
  0  -5343.8426793172   0.000000000000 0.11227085  0.00201306  0.1466512 0.7000
  1  -5343.9338683022  -0.091188984937 0.08496630  0.00150630  0.0781661 0.7000
                               ***Turning on DIIS***
  2  -5343.9740188253  -0.040150523077 0.16623674  0.00279789  0.0411984 0.0000
  3  -5344.0310976840  -0.057078858787 0.03684270  0.00095427  0.0419505 0.0000
  4  -5344.0461823049  -0.015084620834 0.01991688  0.00030049  0.0089893 0.0000
                      *** Initiating the SOSCF procedure ***
                           *** Shutting down DIIS ***
                      *** Re-Reading the Fockian *** 
                      *** Removing any level shift *** 
ITER      Energy       Delta-E        Grad      Rot      Max-DP    RMS-DP
  5  -5344.04685390  -0.0006715921  0.000878  0.000878  0.002357  0.000087
               *** Restarting incremental Fock matrix formation ***
  6  -5344.04687046  -0.0000165617  0.000412  0.000921  0.001115  0.000051
  7  -5344.04687247  -0.0000020082  0.000266  0.000207  0.000711  0.000014
  8  -5344.04687477  -0.0000023019  0.000023  0.000024  0.000110  0.000003
  9  -5344.04687473   0.0000000425  0.000018  0.000010  0.000046  0.000001
 10  -5344.04687479  -0.0000000588  0.000004  0.000003  0.000015  0.000000
 11  -5344.04687485  -0.0000000655  0.000005  0.000002  0.000010  0.000000
                  ***Gradient check signals convergence***
              ***Rediagonalizing the Fockian in SOSCF/NRSCF***

               *****************************************************
               *                     SUCCESS                       *
               *           SCF CONVERGED AFTER  12 CYCLES          *
               *****************************************************

Setting up the final grid:

General Integration Accuracy     IntAcc      ...  4.670
Radial Grid Type                 RadialGrid  ... Gauss-Chebyshev
Angular Grid (max. acc.)         AngularGrid ... Lebedev-302
Angular grid pruning method      GridPruning ... 3 (G Style)
Weight generation scheme         WeightScheme... Becke
Basis function cutoff            BFCut       ...    1.0000e-11
Integration weight cutoff        WCut        ...    1.0000e-14
Grids for H and He will be reduced by one unit

# of grid points (after initial pruning)     ...  87626 (   0.0 sec)
# of grid points (after weights+screening)   ...  79770 (   0.1 sec)
nearest neighbour list constructed           ...    0.0 sec
Grid point re-assignment to atoms done       ...    0.0 sec
Grid point division into batches done        ...    0.3 sec
Reduced shell lists constructed in    0.4 sec

Total number of grid points                  ...    79770
Total number of batches                      ...     1256
Average number of points per batch           ...       63
Average number of grid points per atom       ...     4432
Average number of shells per batch           ...    63.29 (72.75%)
Average number of basis functions per batch  ...   132.11 (69.90%)
Average number of large shells per batch     ...    51.09 (80.72%)
Average number of large basis fcns per batch ...   102.36 (77.48%)
Maximum spatial batch extension              ...  14.99, 15.93, 15.86 au
Average spatial batch extension              ...   0.38,  0.40,  0.39 au

Final grid set up in    0.5 sec
Final integration                            ... done (   0.3 sec)
Change in XC energy                          ...     0.000302478
Integrated number of electrons               ...   112.000495153
Previous integrated no of electrons          ...   112.003575886
Old exchange energy                            =    -52.307463752 Eh
New exchange energy                            =    -52.306678693 Eh
Exchange energy change after final integration =      0.000785059 Eh
Total energy after final integration           =  -5344.045787249 Eh
Final COS-X integration done in                =     1.672 sec

----------------
TOTAL SCF ENERGY
----------------

Total Energy       :        -5344.04578725 Eh         -145418.87882 eV

Components:
Nuclear Repulsion  :          747.97963775 Eh           20353.56070 eV
Electronic Energy  :        -6092.02542500 Eh         -165772.43952 eV
One Electron Energy:        -8941.23226766 Eh         -243303.29930 eV
Two Electron Energy:         2849.20684265 Eh           77530.85978 eV
CPCM Dielectric    :           -0.11323587 Eh              -3.08130 eV

Virial components:
Potential Energy   :       -10680.56545514 Eh         -290632.96153 eV
Kinetic Energy     :         5336.51966789 Eh          145214.08270 eV
Virial Ratio       :            2.00141030


DFT components:
N(Alpha)           :       56.000247576493 electrons
N(Beta)            :       56.000247576493 electrons
N(Total)           :      112.000495152986 electrons
E(X)               :     -156.217566198822 Eh       
E(C)               :       -4.804303978471 Eh       
E(XC)              :     -161.021870177292 Eh       
DFET-embed. en.    :        0.000000000000 Eh       
CPCM Solvation Model Properties:
Surface-charge          :            0.97593082
Charge-correction       :           -0.00324195 Eh              -0.08822 eV
Free-energy (cav+disp)  :            0.00437780 Eh               0.11913 eV
Corrected G(solv)       :        -5344.04465140 Eh         -145418.84792 eV

---------------
SCF CONVERGENCE
---------------

  Last Energy change         ...    6.4797e-08  Tolerance :   1.0000e-08
  Last MAX-Density change    ...    3.9968e-15  Tolerance :   1.0000e-07
  Last RMS-Density change    ...    6.8357e-17  Tolerance :   5.0000e-09
  Last Orbital Gradient      ...    7.4749e-07  Tolerance :   1.0000e-05
  Last Orbital Rotation      ...    8.5422e-07  Tolerance :   1.0000e-05

             **** THE GBW FILE WAS UPDATED (manual_reactants_331.gbw) ****
             **** DENSITY FILE WAS UPDATED (manual_reactants_331.scfp) ****
             **** ENERGY FILE WAS UPDATED (manual_reactants_331.en.tmp) ****
             **** THE GBW FILE WAS UPDATED (manual_reactants_331.gbw) ****
             **** DENSITY FILE WAS UPDATED (manual_reactants_331.scfp) ****
----------------
ORBITAL ENERGIES
----------------

  NO   OCC          E(Eh)            E(eV) 
   0   2.0000    -483.170992    -13147.7511 
   1   2.0000    -483.062368    -13144.7953 
   2   2.0000     -62.607149     -1703.6271 
   3   2.0000     -62.497446     -1700.6420 
   4   2.0000     -56.396300     -1534.6213 
   5   2.0000     -56.394057     -1534.5603 
   6   2.0000     -56.394004     -1534.5589 
   7   2.0000     -56.285509     -1531.6066 
   8   2.0000     -56.285368     -1531.6027 
   9   2.0000     -56.284950     -1531.5914 
  10   2.0000     -10.273362      -279.5524 
  11   2.0000     -10.243812      -278.7483 
  12   2.0000     -10.218189      -278.0511 
  13   2.0000     -10.208743      -277.7940 
  14   2.0000     -10.208722      -277.7934 
  15   2.0000      -8.752435      -238.1659 
  16   2.0000      -8.640892      -235.1306 
  17   2.0000      -6.566729      -178.6898 
  18   2.0000      -6.554613      -178.3601 
  19   2.0000      -6.554497      -178.3569 
  20   2.0000      -6.447282      -175.4395 
  21   2.0000      -6.447201      -175.4373 
  22   2.0000      -6.447102      -175.4346 
  23   2.0000      -2.652199       -72.1700 
  24   2.0000      -2.648988       -72.0826 
  25   2.0000      -2.648852       -72.0789 
  26   2.0000      -2.639038       -71.8119 
  27   2.0000      -2.639001       -71.8109 
  28   2.0000      -2.534154       -68.9578 
  29   2.0000      -2.534102       -68.9564 
  30   2.0000      -2.534079       -68.9558 
  31   2.0000      -2.534002       -68.9537 
  32   2.0000      -2.533970       -68.9528 
  33   2.0000      -0.852095       -23.1867 
  34   2.0000      -0.787013       -21.4157 
  35   2.0000      -0.691145       -18.8070 
  36   2.0000      -0.685103       -18.6426 
  37   2.0000      -0.664671       -18.0866 
  38   2.0000      -0.649967       -17.6865 
  39   2.0000      -0.538483       -14.6529 
  40   2.0000      -0.469816       -12.7844 
  41   2.0000      -0.462958       -12.5977 
  42   2.0000      -0.446765       -12.1571 
  43   2.0000      -0.414461       -11.2781 
  44   2.0000      -0.403166       -10.9707 
  45   2.0000      -0.372068       -10.1245 
  46   2.0000      -0.364300        -9.9131 
  47   2.0000      -0.361569        -9.8388 
  48   2.0000      -0.344534        -9.3752 
  49   2.0000      -0.330164        -8.9842 
  50   2.0000      -0.325689        -8.8625 
  51   2.0000      -0.280006        -7.6193 
  52   2.0000      -0.278887        -7.5889 
  53   2.0000      -0.213122        -5.7994 
  54   2.0000      -0.212638        -5.7862 
  55   2.0000      -0.210319        -5.7231 
  56   0.0000       0.024596         0.6693 
  57   0.0000       0.075151         2.0450 
  58   0.0000       0.117110         3.1867 
  59   0.0000       0.119689         3.2569 
  60   0.0000       0.137851         3.7511 
  61   0.0000       0.142393         3.8747 
  62   0.0000       0.149800         4.0763 
  63   0.0000       0.161066         4.3828 
  64   0.0000       0.171133         4.6568 
  65   0.0000       0.198939         5.4134 
  66   0.0000       0.205561         5.5936 
  67   0.0000       0.208528         5.6743 
  68   0.0000       0.210056         5.7159 
  69   0.0000       0.232032         6.3139 
  70   0.0000       0.246619         6.7108 
  71   0.0000       0.251980         6.8567 
  72   0.0000       0.355134         9.6637 
  73   0.0000       0.384497        10.4627 
  74   0.0000       0.391066        10.6414 
  75   0.0000       0.429840        11.6965 
  76   0.0000       0.433103        11.7853 
  77   0.0000       0.445279        12.1166 
  78   0.0000       0.450746        12.2654 
  79   0.0000       0.500673        13.6240 
  80   0.0000       0.502418        13.6715 
  81   0.0000       0.529080        14.3970 
  82   0.0000       0.557053        15.1582 
  83   0.0000       0.576756        15.6943 
  84   0.0000       0.592918        16.1341 
  85   0.0000       0.598508        16.2862 
  86   0.0000       0.609103        16.5745 
  87   0.0000       0.615567        16.7504 
  88   0.0000       0.623988        16.9796 
  89   0.0000       0.632819        17.2199 
  90   0.0000       0.636452        17.3187 
  91   0.0000       0.638117        17.3640 
  92   0.0000       0.640938        17.4408 
  93   0.0000       0.654114        17.7993 
  94   0.0000       0.655922        17.8486 
  95   0.0000       0.665228        18.1018 
  96   0.0000       0.674283        18.3482 
  97   0.0000       0.681946        18.5567 
  98   0.0000       0.685718        18.6593 
  99   0.0000       0.711645        19.3649 
 100   0.0000       0.712722        19.3942 
 101   0.0000       0.724130        19.7046 
 102   0.0000       0.728728        19.8297 
 103   0.0000       0.730589        19.8803 
 104   0.0000       0.739513        20.1232 
 105   0.0000       0.751179        20.4406 
 106   0.0000       0.753663        20.5082 
 107   0.0000       0.764360        20.7993 
 108   0.0000       0.772183        21.0122 
 109   0.0000       0.773158        21.0387 
 110   0.0000       0.799800        21.7637 
 111   0.0000       0.802126        21.8270 
 112   0.0000       0.863416        23.4947 
 113   0.0000       0.879440        23.9308 
 114   0.0000       0.964872        26.2555 
 115   0.0000       0.974906        26.5285 
 116   0.0000       1.018307        27.7096 
 117   0.0000       1.049962        28.5709 
 118   0.0000       1.127337        30.6764 
 119   0.0000       1.144815        31.1520 
 120   0.0000       1.172142        31.8956 
 121   0.0000       1.199434        32.6382 
 122   0.0000       1.217544        33.1311 
 123   0.0000       1.281705        34.8770 
 124   0.0000       1.300739        35.3949 
 125   0.0000       1.379462        37.5371 
 126   0.0000       1.551925        42.2300 
 127   0.0000       1.562487        42.5174 
 128   0.0000       1.576269        42.8925 
 129   0.0000       1.577405        42.9234 
 130   0.0000       1.594834        43.3976 
 131   0.0000       1.623391        44.1747 
 132   0.0000       1.636444        44.5299 
 133   0.0000       1.712478        46.5989 
 134   0.0000       1.751338        47.6563 
 135   0.0000       1.764820        48.0232 
 136   0.0000       1.778623        48.3988 
 137   0.0000       1.797644        48.9164 
 138   0.0000       1.845597        50.2213 
 139   0.0000       1.855660        50.4951 
 140   0.0000       1.857840        50.5544 
 141   0.0000       1.863724        50.7145 
 142   0.0000       1.869573        50.8737 
 143   0.0000       1.872005        50.9398 
 144   0.0000       1.906501        51.8785 
 145   0.0000       1.920132        52.2494 
 146   0.0000       1.955517        53.2123 
 147   0.0000       1.975983        53.7692 
 148   0.0000       1.990698        54.1696 
 149   0.0000       2.007557        54.6284 
 150   0.0000       2.034446        55.3601 
 151   0.0000       2.094370        56.9907 
 152   0.0000       2.132460        58.0272 
 153   0.0000       2.207223        60.0616 
 154   0.0000       2.228955        60.6530 
 155   0.0000       2.239366        60.9362 
 156   0.0000       2.324312        63.2478 
 157   0.0000       2.342163        63.7335 
 158   0.0000       2.410201        65.5849 
 159   0.0000       2.424946        65.9861 
 160   0.0000       2.433962        66.2315 
 161   0.0000       2.453519        66.7637 
 162   0.0000       2.475888        67.3723 
 163   0.0000       2.615051        71.1592 
 164   0.0000       2.637667        71.7746 
 165   0.0000       2.654530        72.2334 
 166   0.0000       2.660150        72.3864 
 167   0.0000       2.686498        73.1033 
 168   0.0000       2.757451        75.0341 
 169   0.0000       2.881584        78.4119 
 170   0.0000       2.897444        78.8435 
 171   0.0000       2.898586        78.8745 
 172   0.0000       2.917734        79.3956 
 173   0.0000       2.939719        79.9938 
 174   0.0000       2.998561        81.5950 
 175   0.0000       3.011117        81.9367 
 176   0.0000       3.030228        82.4567 
 177   0.0000       3.111042        84.6558 
 178   0.0000       3.129682        85.1630 
 179   0.0000       3.498278        95.1930 
 180   0.0000       3.501846        95.2901 
 181   0.0000       3.564297        96.9895 
 182   0.0000       3.564323        96.9902 
 183   0.0000       3.566534        97.0503 
 184   0.0000       3.593842        97.7934 
 185   0.0000       3.594074        97.7997 
 186   0.0000       3.612626        98.3045 
 187   0.0000       3.614410        98.3531 
 188   0.0000       3.862167       105.0949 

                    ********************************
                    * MULLIKEN POPULATION ANALYSIS *
                    ********************************

-----------------------
MULLIKEN ATOMIC CHARGES
-----------------------
   0 C :    0.009895
   1 C :   -0.404559
   2 C :   -0.003295
   3 C :   -0.003203
   4 C :   -0.022262
   5 Br:   -0.188769
   6 H :    0.034365
   7 H :    0.037085
   8 H :    0.026415
   9 H :    0.037436
  10 H :    0.040014
  11 H :    0.029328
  12 H :    0.043337
  13 H :    0.047290
  14 H :    0.044245
  15 H :    0.097364
  16 H :    0.097981
  17 Br:   -0.922668
Sum of atomic charges:   -1.0000000

--------------------------------
MULLIKEN REDUCED ORBITAL CHARGES
--------------------------------
  0 C s       :     3.013544  s :     3.013544
      pz      :     0.973854  p :     2.950102
      px      :     0.996260
      py      :     0.979989
      dz2     :     0.002096  d :     0.026460
      dxz     :     0.008050
      dyz     :     0.007097
      dx2y2   :     0.001822
      dxy     :     0.007393
  1 C s       :     3.278552  s :     3.278552
      pz      :     1.018087  p :     3.072171
      px      :     1.011487
      py      :     1.042597
      dz2     :     0.007767  d :     0.053835
      dxz     :     0.013824
      dyz     :     0.012483
      dx2y2   :     0.008076
      dxy     :     0.011686
  2 C s       :     3.019316  s :     3.019316
      pz      :     0.990763  p :     2.957457
      px      :     1.001595
      py      :     0.965099
      dz2     :     0.001475  d :     0.026522
      dxz     :     0.008048
      dyz     :     0.007436
      dx2y2   :     0.002590
      dxy     :     0.006973
  3 C s       :     3.028295  s :     3.028295
      pz      :     0.996122  p :     2.947897
      px      :     0.968851
      py      :     0.982924
      dz2     :     0.001620  d :     0.027011
      dxz     :     0.008168
      dyz     :     0.007198
      dx2y2   :     0.003182
      dxy     :     0.006844
  4 C s       :     3.124324  s :     3.124324
      pz      :     1.024613  p :     2.862433
      px      :     0.876745
      py      :     0.961075
      dz2     :     0.004628  d :     0.035505
      dxz     :     0.008472
      dyz     :     0.008512
      dx2y2   :     0.004239
      dxy     :     0.009654
  5 Brs       :     7.969380  s :     7.969380
      pz      :     5.914324  p :    17.176699
      px      :     5.535856
      py      :     5.726518
      dz2     :     2.005280  d :    10.042691
      dxz     :     2.007954
      dyz     :     2.005040
      dx2y2   :     2.009029
      dxy     :     2.015388
  6 H s       :     0.942057  s :     0.942057
      pz      :     0.006416  p :     0.023578
      px      :     0.007324
      py      :     0.009838
  7 H s       :     0.939085  s :     0.939085
      pz      :     0.008776  p :     0.023830
      px      :     0.008458
      py      :     0.006596
  8 H s       :     0.948358  s :     0.948358
      pz      :     0.007871  p :     0.025227
      px      :     0.008827
      py      :     0.008530
  9 H s       :     0.939094  s :     0.939094
      pz      :     0.008562  p :     0.023470
      px      :     0.007032
      py      :     0.007876
 10 H s       :     0.936284  s :     0.936284
      pz      :     0.009003  p :     0.023702
      px      :     0.009324
      py      :     0.005375
 11 H s       :     0.945432  s :     0.945432
      pz      :     0.008193  p :     0.025240
      px      :     0.010094
      py      :     0.006953
 12 H s       :     0.933020  s :     0.933020
      pz      :     0.007217  p :     0.023642
      px      :     0.005787
      py      :     0.010638
 13 H s       :     0.928844  s :     0.928844
      pz      :     0.009431  p :     0.023865
      px      :     0.008388
      py      :     0.006046
 14 H s       :     0.932058  s :     0.932058
      pz      :     0.009017  p :     0.023697
      px      :     0.007362
      py      :     0.007318
 15 H s       :     0.880029  s :     0.880029
      pz      :     0.006370  p :     0.022607
      px      :     0.005495
      py      :     0.010742
 16 H s       :     0.879346  s :     0.879346
      pz      :     0.008628  p :     0.022673
      px      :     0.006528
      py      :     0.007517
 17 Brs       :     7.997102  s :     7.997102
      pz      :     5.961453  p :    17.924997
      px      :     5.985786
      py      :     5.977757
      dz2     :     2.000147  d :    10.000569
      dxz     :     2.000185
      dyz     :     2.000165
      dx2y2   :     2.000061
      dxy     :     2.000012


                     *******************************
                     * LOEWDIN POPULATION ANALYSIS *
                     *******************************

----------------------
LOEWDIN ATOMIC CHARGES
----------------------
   0 C :   -0.063787
   1 C :   -0.087893
   2 C :   -0.066258
   3 C :   -0.052114
   4 C :   -0.068988
   5 Br:   -0.023969
   6 H :    0.025712
   7 H :    0.029017
   8 H :    0.008463
   9 H :    0.026374
  10 H :    0.029301
  11 H :    0.008183
  12 H :    0.029164
  13 H :    0.032839
  14 H :    0.029490
  15 H :    0.037118
  16 H :    0.037096
  17 Br:   -0.929749

-------------------------------
LOEWDIN REDUCED ORBITAL CHARGES
-------------------------------
  0 C s       :     2.846631  s :     2.846631
      pz      :     1.042858  p :     3.146817
      px      :     1.056587
      py      :     1.047372
      dz2     :     0.004905  d :     0.070339
      dxz     :     0.021810
      dyz     :     0.019618
      dx2y2   :     0.004190
      dxy     :     0.019817
  1 C s       :     2.851370  s :     2.851370
      pz      :     1.034448  p :     3.114085
      px      :     1.034343
      py      :     1.045295
      dz2     :     0.015139  d :     0.122438
      dxz     :     0.033891
      dyz     :     0.029733
      dx2y2   :     0.015665
      dxy     :     0.028009
  2 C s       :     2.846850  s :     2.846850
      pz      :     1.053985  p :     3.149114
      px      :     1.060571
      py      :     1.034558
      dz2     :     0.003489  d :     0.070295
      dxz     :     0.021180
      dyz     :     0.020364
      dx2y2   :     0.006545
      dxy     :     0.018716
  3 C s       :     2.848613  s :     2.848613
      pz      :     1.055559  p :     3.132684
      px      :     1.032534
      py      :     1.044591
      dz2     :     0.003900  d :     0.070817
      dxz     :     0.021709
      dyz     :     0.018892
      dx2y2   :     0.007595
      dxy     :     0.018720
  4 C s       :     2.917110  s :     2.917110
      pz      :     1.063914  p :     3.067120
      px      :     0.973142
      py      :     1.030064
      dz2     :     0.010088  d :     0.084758
      dxz     :     0.021874
      dyz     :     0.020503
      dx2y2   :     0.009393
      dxy     :     0.022900
  5 Brs       :     7.823956  s :     7.823956
      pz      :     5.895181  p :    17.145439
      px      :     5.533444
      py      :     5.716813
      dz2     :     2.007675  d :    10.054574
      dxz     :     2.009721
      dyz     :     2.006116
      dx2y2   :     2.010141
      dxy     :     2.020922
  6 H s       :     0.907970  s :     0.907970
      pz      :     0.018159  p :     0.066318
      px      :     0.020092
      py      :     0.028067
  7 H s       :     0.904663  s :     0.904663
      pz      :     0.025109  p :     0.066320
      px      :     0.023547
      py      :     0.017663
  8 H s       :     0.919837  s :     0.919837
      pz      :     0.022660  p :     0.071699
      px      :     0.025284
      py      :     0.023756
  9 H s       :     0.907306  s :     0.907306
      pz      :     0.023763  p :     0.066319
      px      :     0.019338
      py      :     0.023218
 10 H s       :     0.904259  s :     0.904259
      pz      :     0.025128  p :     0.066440
      px      :     0.025554
      py      :     0.015758
 11 H s       :     0.919760  s :     0.919760
      pz      :     0.022618  p :     0.072057
      px      :     0.028316
      py      :     0.021123
 12 H s       :     0.904292  s :     0.904292
      pz      :     0.019478  p :     0.066545
      px      :     0.016778
      py      :     0.030288
 13 H s       :     0.900662  s :     0.900662
      pz      :     0.025960  p :     0.066499
      px      :     0.024177
      py      :     0.016363
 14 H s       :     0.904059  s :     0.904059
      pz      :     0.024852  p :     0.066450
      px      :     0.021214
      py      :     0.020384
 15 H s       :     0.891673  s :     0.891673
      pz      :     0.021249  p :     0.071208
      px      :     0.017044
      py      :     0.032916
 16 H s       :     0.891618  s :     0.891618
      pz      :     0.028202  p :     0.071286
      px      :     0.021380
      py      :     0.021704
 17 Brs       :     7.995893  s :     7.995893
      pz      :     5.964885  p :    17.933241
      px      :     5.986944
      py      :     5.981412
      dz2     :     2.000161  d :    10.000615
      dxz     :     2.000197
      dyz     :     2.000182
      dx2y2   :     2.000066
      dxy     :     2.000009


                      *****************************
                      * MAYER POPULATION ANALYSIS *
                      *****************************

  NA   - Mulliken gross atomic population
  ZA   - Total nuclear charge
  QA   - Mulliken gross atomic charge
  VA   - Mayer's total valence
  BVA  - Mayer's bonded valence
  FA   - Mayer's free valence

  ATOM       NA         ZA         QA         VA         BVA        FA
  0 C      5.9901     6.0000     0.0099     3.8482     3.8482    -0.0000
  1 C      6.4046     6.0000    -0.4046     4.1586     4.1586     0.0000
  2 C      6.0033     6.0000    -0.0033     3.8438     3.8438     0.0000
  3 C      6.0032     6.0000    -0.0032     3.8944     3.8944    -0.0000
  4 C      6.0223     6.0000    -0.0223     3.8258     3.8258     0.0000
  5 Br    35.1888    35.0000    -0.1888     1.0513     1.0513    -0.0000
  6 H      0.9656     1.0000     0.0344     0.9913     0.9913     0.0000
  7 H      0.9629     1.0000     0.0371     0.9956     0.9956    -0.0000
  8 H      0.9736     1.0000     0.0264     1.0589     1.0589    -0.0000
  9 H      0.9626     1.0000     0.0374     0.9911     0.9911     0.0000
 10 H      0.9600     1.0000     0.0400     0.9950     0.9950     0.0000
 11 H      0.9707     1.0000     0.0293     1.0604     1.0604     0.0000
 12 H      0.9567     1.0000     0.0433     0.9901     0.9901    -0.0000
 13 H      0.9527     1.0000     0.0473     0.9923     0.9923     0.0000
 14 H      0.9558     1.0000     0.0442     0.9912     0.9912    -0.0000
 15 H      0.9026     1.0000     0.0974     0.9763     0.9763    -0.0000
 16 H      0.9020     1.0000     0.0980     0.9765     0.9765     0.0000
 17 Br    35.9227    35.0000    -0.9227     0.1601     0.1601     0.0000

  Mayer bond orders larger than 0.100000
B(  0-C ,  1-C ) :   1.0243 B(  0-C ,  6-H ) :   0.9647 B(  0-C ,  7-H ) :   0.9681 
B(  0-C ,  8-H ) :   0.9469 B(  1-C ,  2-C ) :   1.0208 B(  1-C ,  3-C ) :   1.0272 
B(  1-C ,  4-C ) :   0.9938 B(  2-C ,  9-H ) :   0.9645 B(  2-C , 10-H ) :   0.9690 
B(  2-C , 11-H ) :   0.9461 B(  3-C , 12-H ) :   0.9645 B(  3-C , 13-H ) :   0.9629 
B(  3-C , 14-H ) :   0.9664 B(  4-C ,  5-Br) :   0.9869 B(  4-C , 15-H ) :   0.9468 
B(  4-C , 16-H ) :   0.9476 


------------------
HIRSHFELD ANALYSIS
------------------

Total integrated alpha density =     56.001787943
Total integrated beta density  =     56.001787943

  ATOM     CHARGE      SPIN    
   0 C   -0.087397    0.000000
   1 C    0.027144    0.000000
   2 C   -0.090869    0.000000
   3 C   -0.070945    0.000000
   4 C    0.008440    0.000000
   5 Br  -0.144064    0.000000
   6 H    0.022905    0.000000
   7 H    0.024369    0.000000
   8 H   -0.002936    0.000000
   9 H    0.022348    0.000000
  10 H    0.024566    0.000000
  11 H   -0.004199    0.000000
  12 H    0.028005    0.000000
  13 H    0.029939    0.000000
  14 H    0.027327    0.000000
  15 H    0.042059    0.000000
  16 H    0.042096    0.000000
  17 Br  -0.902363    0.000000

  TOTAL  -1.003576    0.000000

-------
TIMINGS
-------

Total SCF time: 0 days 0 hours 0 min 20 sec 

Total time                  ....      20.010 sec
Sum of individual times     ....      19.796 sec  ( 98.9%)

Fock matrix formation       ....      18.577 sec  ( 92.8%)
  Split-RI-J                ....       2.243 sec  ( 12.1% of F)
  Chain of spheres X        ....      11.201 sec  ( 60.3% of F)
  COS-X 1 center corr.      ....       0.000 sec  (  0.0% of F)
  XC integration            ....       1.086 sec  (  5.8% of F)
    Basis function eval.    ....       0.421 sec  ( 38.8% of XC)
    Density eval.           ....       0.220 sec  ( 20.2% of XC)
    XC-Functional eval.     ....       0.077 sec  (  7.1% of XC)
    XC-Potential eval.      ....       0.307 sec  ( 28.3% of XC)
Diagonalization             ....       0.029 sec  (  0.1%)
Density matrix formation    ....       0.007 sec  (  0.0%)
Population analysis         ....       0.077 sec  (  0.4%)
Initial guess               ....       0.192 sec  (  1.0%)
Orbital Transformation      ....       0.000 sec  (  0.0%)
Orbital Orthonormalization  ....       0.000 sec  (  0.0%)
DIIS solution               ....       0.009 sec  (  0.0%)
SOSCF solution              ....       0.021 sec  (  0.1%)
Grid generation             ....       0.884 sec  (  4.4%)


-------------------------------------------------------------------------------
                          DFT DISPERSION CORRECTION                            
                                                                               
                              DFTD3 V3.1  Rev 1                                
                          USING Becke-Johnson damping                          
-------------------------------------------------------------------------------
The PBE0 functional is recognized
Active option DFTDOPT                   ...         4   

molecular C6(AA) [au] = 4423.884450 


            DFT-D V3
 parameters
 s6 scaling factor         :     1.0000 
 a1 scaling factor         :     0.4145 
 s8 scaling factor         :     1.2177 
 a2 scaling factor         :     4.8593 
 ad hoc parameters k1-k3   :    16.0000     1.3333    -4.0000 

 Edisp/kcal,au: -10.479952542213  -0.016700865656 
 E6   /kcal   :  -6.437772486 
 E8   /kcal   :  -4.042180056 
 % E8         :  38.570595044 

-------------------------   ----------------
Dispersion correction           -0.016700866
-------------------------   ----------------


-------------------------   --------------------
FINAL SINGLE POINT ENERGY     -5344.062488114947
-------------------------   --------------------

[1631282541.359443] [comp0811:50843:0]            sys.c:618  UCX  ERROR shmget(size=2097152 flags=0xfb0) for mm_recv_desc failed: Operation not permitted, please check shared memory limits by 'ipcs -l'
[1631282541.367876] [comp0811:50841:0]            sys.c:618  UCX  ERROR shmget(size=2097152 flags=0xfb0) for mm_recv_desc failed: Operation not permitted, please check shared memory limits by 'ipcs -l'
[1631282541.379065] [comp0811:50844:0]            sys.c:618  UCX  ERROR shmget(size=2097152 flags=0xfb0) for mm_recv_desc failed: Operation not permitted, please check shared memory limits by 'ipcs -l'
[1631282541.383692] [comp0811:50842:0]            sys.c:618  UCX  ERROR shmget(size=2097152 flags=0xfb0) for mm_recv_desc failed: Operation not permitted, please check shared memory limits by 'ipcs -l'
[1631282541.401210] [comp0811:50843:0]            sys.c:618  UCX  ERROR shmget(size=2097152 flags=0xb80) for ucp_am_bufs failed: Operation not permitted, please check shared memory limits by 'ipcs -l'
[1631282541.401222] [comp0811:50841:0]            sys.c:618  UCX  ERROR shmget(size=2097152 flags=0xb80) for ucp_am_bufs failed: Operation not permitted, please check shared memory limits by 'ipcs -l'


           ************************************************************
           *        Program running with 4 parallel MPI-processes     *
           *              working on a common directory               *
           ************************************************************
[1631282541.405032] [comp0811:50842:0]            sys.c:618  UCX  ERROR shmget(size=2097152 flags=0xb80) for ucp_am_bufs failed: Operation not permitted, please check shared memory limits by 'ipcs -l'
------------------------------------------------------------------------------
                         ORCA SCF GRADIENT CALCULATION
------------------------------------------------------------------------------

[1631282541.577478] [comp0811:50844:0]            sys.c:618  UCX  ERROR shmget(size=2097152 flags=0xb80) for ucp_am_bufs failed: Operation not permitted, please check shared memory limits by 'ipcs -l'
Gradient of the Kohn-Sham DFT energy:
Kohn-Sham wavefunction type      ... RKS
Hartree-Fock exchange scaling    ...    0.250
Number of operators              ...    1
Number of atoms                  ...   18
Basis set dimensions             ...  189
Integral neglect threshold       ... 2.5e-11
Integral primitive cutoff        ... 2.5e-12

Nuclear repulsion gradient       ... done
One Electron Gradient            ... done
Pre-screening matrix             ... done
RI-J gradient                    ... done
COSX-gradient                    ... done
Exchange-correlation gradient    ... done
Dispersion correction            ... done

------------------
CARTESIAN GRADIENT
------------------

   1   C   :    0.000431726    0.000337486    0.000127428
   2   C   :   -0.000085454    0.000075620    0.000038784
   3   C   :    0.000354203    0.000497486    0.000359925
   4   C   :   -0.000114942   -0.000011548    0.000094597
   5   C   :   -0.000063921   -0.000069880   -0.000004137
   6   Br  :   -0.000208234    0.000017934    0.000982075
   7   H   :   -0.000041473    0.000107248    0.000146428
   8   H   :   -0.000103443    0.000095791    0.000016688
   9   H   :   -0.000432506    0.000183968    0.000653822
  10   H   :    0.000039293    0.000086468    0.000056152
  11   H   :   -0.000049718    0.000072599   -0.000032139
  12   H   :    0.000161375   -0.000276589    0.000944300
  13   H   :   -0.000119536   -0.000006451    0.000077436
  14   H   :   -0.000113758    0.000027731    0.000050154
  15   H   :   -0.000082835   -0.000028738    0.000037534
  16   H   :   -0.000099353   -0.000061205    0.000025877
  17   H   :   -0.000083369   -0.000064004   -0.000019825
  18   Br  :   -0.001717371   -0.000731562   -0.002993822

Difference to translation invariance:
           :   -0.0023293157    0.0002523528    0.0005612757

Norm of the cartesian gradient     ...    0.0040137603
RMS gradient                       ...    0.0005462036
MAX gradient                       ...    0.0029938221

-------
TIMINGS
-------

Total SCF gradient time            ...        4.424 sec

One electron gradient       ....       0.050 sec  (  1.1%)
Prescreening matrices       ....       0.118 sec  (  2.7%)
RI-J Coulomb gradient       ....       0.365 sec  (  8.3%)
COSX gradient               ....       1.678 sec  ( 37.9%)
XC gradient                 ....       1.148 sec  ( 26.0%)
CPCM gradient               ....       0.702 sec  ( 15.9%)
   A-Matrix (El+Nuc)        ....       0.054 sec  (  1.2%)
   Potential                ....       0.648 sec  ( 14.6%)
------------------------------------------------------------------------------
                         ORCA GEOMETRY RELAXATION STEP
------------------------------------------------------------------------------

Reading the OPT-File                    .... done
Getting information on internals        .... done
Copying old internal coords+grads       .... done
Making the new internal coordinates     .... (new redundants).... done
Validating the new internal coordinates .... (new redundants).... done
Calculating the B-matrix                .... done
Calculating the G,G- and P matrices     .... done
Transforming gradient to internals      .... done
Projecting the internal gradient        .... done
Number of atoms                         ....  18
Number of internal coordinates          ....  95
Current Energy                          .... -5344.062488115 Eh
Current gradient norm                   ....     0.004013760 Eh/bohr
Maximum allowed component of the step   ....  0.300
Current trust radius                    ....  0.300
Evaluating the initial hessian          ....  (Almloef) done
Projecting the Hessian                  .... done
Forming the augmented Hessian           .... done
Diagonalizing the augmented Hessian     .... done
Last element of RFO vector              ....  0.846514731
Lowest eigenvalues of augmented Hessian:
 -0.001692454  0.003866954  0.010722797  0.011368529  0.012790942
Length of the computed step             ....  0.628890765
Warning: the length of the step is outside the trust region - taking restricted step instead
The input lambda is                     ....    -0.001692
   iter:   1  x=   -0.003252  g=  195.831547 f(x)=     0.305504
   iter:   2  x=   -0.004841  g=   73.186033 f(x)=     0.116263
   iter:   3  x=   -0.005875  g=   34.571476 f(x)=     0.035746
   iter:   4  x=   -0.006154  g=   23.114796 f(x)=     0.006453
   iter:   5  x=   -0.006169  g=   20.917150 f(x)=     0.000314
   iter:   6  x=   -0.006169  g=   20.807194 f(x)=     0.000001
   iter:   7  x=   -0.006169  g=   20.806904 f(x)=     0.000000
   iter:   8  x=   -0.006169  g=   20.806904 f(x)=     0.000000
The output lambda is                    ....    -0.006169 (8 iterations)
The final length of the internal step   ....  0.300000000
Converting the step to cartesian space:
 Initial RMS(Int)=    0.0307793506
Transforming coordinates:
 Iter   0:  RMS(Cart)=    0.0302143960 RMS(Int)=    0.0287843331
 Iter   1:  RMS(Cart)=    0.0036372564 RMS(Int)=    0.0026591819
 Iter   2:  RMS(Cart)=    0.0000549001 RMS(Int)=    0.0000401837
 Iter   3:  RMS(Cart)=    0.0000009555 RMS(Int)=    0.0000007676
 Iter   4:  RMS(Cart)=    0.0000000184 RMS(Int)=    0.0000000162
done
Storing new coordinates                 .... done

                                .--------------------.
[...]
 165   0.0000       2.652501        72.1782 
 166   0.0000       2.656737        72.2935 
 167   0.0000       2.680741        72.9467 
 168   0.0000       2.754772        74.9612 
 169   0.0000       2.879944        78.3672 
 170   0.0000       2.893994        78.7496 
 171   0.0000       2.896591        78.8202 
 172   0.0000       2.916635        79.3657 
 173   0.0000       2.932203        79.7893 
 174   0.0000       2.992796        81.4381 
 175   0.0000       3.009481        81.8921 
 176   0.0000       3.025932        82.3398 
 177   0.0000       3.109788        84.6216 
 178   0.0000       3.128284        85.1249 
 179   0.0000       3.497957        95.1843 
 180   0.0000       3.500472        95.2527 
 181   0.0000       3.563421        96.9656 
 182   0.0000       3.563462        96.9667 
 183   0.0000       3.563591        96.9703 
 184   0.0000       3.578679        97.3808 
 185   0.0000       3.582560        97.4864 
 186   0.0000       3.604079        98.0720 
 187   0.0000       3.604620        98.0867 
 188   0.0000       3.861377       105.0734 

                    ********************************
                    * MULLIKEN POPULATION ANALYSIS *
                    ********************************

-----------------------
MULLIKEN ATOMIC CHARGES
-----------------------
   0 C :    0.013340
   1 C :   -0.405090
   2 C :   -0.004288
   3 C :   -0.003812
   4 C :   -0.021668
   5 Br:   -0.185542
   6 H :    0.038107
   7 H :    0.042356
   8 H :    0.019610
   9 H :    0.042416
  10 H :    0.046876
  11 H :    0.026082
  12 H :    0.044994
  13 H :    0.048525
  14 H :    0.045815
  15 H :    0.098685
  16 H :    0.099292
  17 Br:   -0.945697
Sum of atomic charges:   -1.0000000

--------------------------------
MULLIKEN REDUCED ORBITAL CHARGES
--------------------------------
  0 C s       :     3.014763  s :     3.014763
      pz      :     0.972725  p :     2.945289
      px      :     0.992626
      py      :     0.979938
      dz2     :     0.002216  d :     0.026607
      dxz     :     0.008128
      dyz     :     0.006954
      dx2y2   :     0.002017
      dxy     :     0.007292
  1 C s       :     3.277064  s :     3.277064
      pz      :     1.018690  p :     3.074148
      px      :     1.013678
      py      :     1.041780
      dz2     :     0.007688  d :     0.053878
      dxz     :     0.013821
      dyz     :     0.012583
      dx2y2   :     0.008057
      dxy     :     0.011728
  2 C s       :     3.023830  s :     3.023830
      pz      :     0.993015  p :     2.953769
      px      :     0.996993
      py      :     0.963761
      dz2     :     0.001560  d :     0.026689
      dxz     :     0.008039
      dyz     :     0.007376
      dx2y2   :     0.002439
      dxy     :     0.007275
  3 C s       :     3.028912  s :     3.028912
      pz      :     0.995075  p :     2.947934
      px      :     0.969761
      py      :     0.983098
      dz2     :     0.001605  d :     0.026966
      dxz     :     0.008137
      dyz     :     0.007263
      dx2y2   :     0.003024
      dxy     :     0.006937
  4 C s       :     3.125239  s :     3.125239
      pz      :     1.020150  p :     2.861018
      px      :     0.883406
      py      :     0.957462
      dz2     :     0.004526  d :     0.035410
      dxz     :     0.008562
      dyz     :     0.008440
      dx2y2   :     0.004096
      dxy     :     0.009786
  5 Brs       :     7.969453  s :     7.969453
      pz      :     5.902437  p :    17.173195
      px      :     5.555987
      py      :     5.714771
      dz2     :     2.005145  d :    10.042894
      dxz     :     2.008212
      dyz     :     2.005541
      dx2y2   :     2.008738
      dxy     :     2.015257
  6 H s       :     0.938282  s :     0.938282
      pz      :     0.006336  p :     0.023612
      px      :     0.007108
      py      :     0.010167
  7 H s       :     0.933811  s :     0.933811
      pz      :     0.008946  p :     0.023833
      px      :     0.008543
      py      :     0.006344
  8 H s       :     0.955832  s :     0.955832
      pz      :     0.007283  p :     0.024558
      px      :     0.009321
      py      :     0.007955
  9 H s       :     0.934084  s :     0.934084
      pz      :     0.008624  p :     0.023499
      px      :     0.007183
      py      :     0.007692
 10 H s       :     0.929432  s :     0.929432
      pz      :     0.009174  p :     0.023692
      px      :     0.009110
      py      :     0.005408
 11 H s       :     0.949484  s :     0.949484
      pz      :     0.007394  p :     0.024435
      px      :     0.009613
      py      :     0.007427
 12 H s       :     0.931327  s :     0.931327
      pz      :     0.007176  p :     0.023680
      px      :     0.005948
      py      :     0.010555
 13 H s       :     0.927581  s :     0.927581
      pz      :     0.009166  p :     0.023894
      px      :     0.008592
      py      :     0.006136
 14 H s       :     0.930475  s :     0.930475
      pz      :     0.009086  p :     0.023710
      px      :     0.007274
      py      :     0.007350
 15 H s       :     0.878667  s :     0.878667
      pz      :     0.006282  p :     0.022647
      px      :     0.005787
      py      :     0.010579
 16 H s       :     0.877995  s :     0.877995
      pz      :     0.008831  p :     0.022713
      px      :     0.006457
      py      :     0.007425
 17 Brs       :     7.998813  s :     7.998813
      pz      :     5.973273  p :    17.946689
      px      :     5.989028
      py      :     5.984389
      dz2     :     2.000071  d :    10.000195
      dxz     :     2.000049
      dyz     :     2.000053
      dx2y2   :     2.000016
      dxy     :     2.000006


                     *******************************
                     * LOEWDIN POPULATION ANALYSIS *
                     *******************************

----------------------
LOEWDIN ATOMIC CHARGES
----------------------
   0 C :   -0.060515
   1 C :   -0.088989
   2 C :   -0.063331
   3 C :   -0.051121
   4 C :   -0.068343
   5 Br:   -0.020326
   6 H :    0.028072
   7 H :    0.030919
   8 H :    0.009939
   9 H :    0.029057
  10 H :    0.031495
  11 H :    0.011632
  12 H :    0.030039
  13 H :    0.033627
  14 H :    0.030241
  15 H :    0.037964
  16 H :    0.037817
  17 Br:   -0.958175

-------------------------------
LOEWDIN REDUCED ORBITAL CHARGES
-------------------------------
  0 C s       :     2.846112  s :     2.846112
      pz      :     1.042031  p :     3.143757
      px      :     1.054715
      py      :     1.047011
      dz2     :     0.005232  d :     0.070646
      dxz     :     0.021916
      dyz     :     0.019233
      dx2y2   :     0.004772
      dxy     :     0.019492
  1 C s       :     2.851211  s :     2.851211
      pz      :     1.035540  p :     3.115226
      px      :     1.034810
      py      :     1.044876
      dz2     :     0.014799  d :     0.122553
      dxz     :     0.033971
      dyz     :     0.030098
      dx2y2   :     0.015552
      dxy     :     0.028132
  2 C s       :     2.846541  s :     2.846541
      pz      :     1.054395  p :     3.146185
      px      :     1.057886
      py      :     1.033904
      dz2     :     0.003714  d :     0.070605
      dxz     :     0.021142
      dyz     :     0.020076
      dx2y2   :     0.006092
      dxy     :     0.019581
  3 C s       :     2.848040  s :     2.848040
      pz      :     1.054319  p :     3.132336
      px      :     1.033407
      py      :     1.044610
      dz2     :     0.003789  d :     0.070745
      dxz     :     0.021715
      dyz     :     0.019127
      dx2y2   :     0.007189
      dxy     :     0.018925
  4 C s       :     2.916843  s :     2.916843
      pz      :     1.061031  p :     3.066899
      px      :     0.978573
      py      :     1.027296
      dz2     :     0.009824  d :     0.084601
      dxz     :     0.022110
      dyz     :     0.020337
      dx2y2   :     0.009014
      dxy     :     0.023316
  5 Brs       :     7.823794  s :     7.823794
      pz      :     5.883879  p :    17.141778
      px      :     5.552467
      py      :     5.705432
      dz2     :     2.007477  d :    10.054755
      dxz     :     2.010032
      dyz     :     2.006741
      dx2y2   :     2.009709
      dxy     :     2.020795
  6 H s       :     0.905657  s :     0.905657
      pz      :     0.017937  p :     0.066271
      px      :     0.019379
      py      :     0.028955
  7 H s       :     0.902689  s :     0.902689
      pz      :     0.025606  p :     0.066391
      px      :     0.023714
      py      :     0.017071
  8 H s       :     0.920428  s :     0.920428
      pz      :     0.021037  p :     0.069634
      px      :     0.026299
      py      :     0.022298
  9 H s       :     0.904674  s :     0.904674
      pz      :     0.023906  p :     0.066269
      px      :     0.019774
      py      :     0.022589
 10 H s       :     0.901971  s :     0.901971
      pz      :     0.025631  p :     0.066534
      px      :     0.025099
      py      :     0.015804
 11 H s       :     0.918790  s :     0.918790
      pz      :     0.020462  p :     0.069579
      px      :     0.027001
      py      :     0.022115
 12 H s       :     0.903386  s :     0.903386
      pz      :     0.019429  p :     0.066575
      px      :     0.017154
      py      :     0.029992
 13 H s       :     0.899831  s :     0.899831
      pz      :     0.025257  p :     0.066542
      px      :     0.024659
      py      :     0.016626
 14 H s       :     0.903280  s :     0.903280
      pz      :     0.025163  p :     0.066479
      px      :     0.020849
      py      :     0.020467
 15 H s       :     0.890749  s :     0.890749
      pz      :     0.020938  p :     0.071287
      px      :     0.017873
      py      :     0.032476
 16 H s       :     0.890812  s :     0.890812
      pz      :     0.028800  p :     0.071371
      px      :     0.021086
      py      :     0.021486
 17 Brs       :     7.998975  s :     7.998975
      pz      :     5.978909  p :    17.958968
      px      :     5.991528
      py      :     5.988532
      dz2     :     2.000079  d :    10.000232
      dxz     :     2.000061
      dyz     :     2.000067
      dx2y2   :     2.000019
      dxy     :     2.000006


                      *****************************
                      * MAYER POPULATION ANALYSIS *
                      *****************************

  NA   - Mulliken gross atomic population
  ZA   - Total nuclear charge
  QA   - Mulliken gross atomic charge
  VA   - Mayer's total valence
  BVA  - Mayer's bonded valence
  FA   - Mayer's free valence

  ATOM       NA         ZA         QA         VA         BVA        FA
  0 C      5.9867     6.0000     0.0133     3.8533     3.8533     0.0000
  1 C      6.4051     6.0000    -0.4051     4.1558     4.1558     0.0000
  2 C      6.0043     6.0000    -0.0043     3.8482     3.8482    -0.0000
  3 C      6.0038     6.0000    -0.0038     3.8953     3.8953    -0.0000
  4 C      6.0217     6.0000    -0.0217     3.8212     3.8212    -0.0000
  5 Br    35.1855    35.0000    -0.1855     1.0555     1.0555     0.0000
  6 H      0.9619     1.0000     0.0381     0.9917     0.9917    -0.0000
  7 H      0.9576     1.0000     0.0424     0.9939     0.9939     0.0000
  8 H      0.9804     1.0000     0.0196     1.0502     1.0502     0.0000
  9 H      0.9576     1.0000     0.0424     0.9916     0.9916    -0.0000
 10 H      0.9531     1.0000     0.0469     0.9930     0.9930     0.0000
 11 H      0.9739     1.0000     0.0261     1.0468     1.0468     0.0000
 12 H      0.9550     1.0000     0.0450     0.9903     0.9903     0.0000
 13 H      0.9515     1.0000     0.0485     0.9923     0.9923     0.0000
 14 H      0.9542     1.0000     0.0458     0.9913     0.9913     0.0000
 15 H      0.9013     1.0000     0.0987     0.9764     0.9764    -0.0000
 16 H      0.9007     1.0000     0.0993     0.9763     0.9763    -0.0000
 17 Br    35.9457    35.0000    -0.9457     0.1125     0.1125     0.0000

  Mayer bond orders larger than 0.100000
B(  0-C ,  1-C ) :   1.0255 B(  0-C ,  6-H ) :   0.9650 B(  0-C ,  7-H ) :   0.9678 
B(  0-C ,  8-H ) :   0.9517 B(  1-C ,  2-C ) :   1.0187 B(  1-C ,  3-C ) :   1.0278 
B(  1-C ,  4-C ) :   0.9917 B(  2-C ,  9-H ) :   0.9657 B(  2-C , 10-H ) :   0.9692 
B(  2-C , 11-H ) :   0.9525 B(  3-C , 12-H ) :   0.9646 B(  3-C , 13-H ) :   0.9633 
B(  3-C , 14-H ) :   0.9661 B(  4-C ,  5-Br) :   0.9862 B(  4-C , 15-H ) :   0.9471 
B(  4-C , 16-H ) :   0.9475 


------------------
HIRSHFELD ANALYSIS
------------------

Total integrated alpha density =     56.000681632
Total integrated beta density  =     56.000681632

  ATOM     CHARGE      SPIN    
   0 C   -0.083401    0.000000
   1 C    0.027417    0.000000
   2 C   -0.086558    0.000000
   3 C   -0.069950    0.000000
   4 C    0.009028    0.000000
   5 Br  -0.140343    0.000000
   6 H    0.025745    0.000000
   7 H    0.027046    0.000000
   8 H    0.000505    0.000000
   9 H    0.025149    0.000000
  10 H    0.027485    0.000000
  11 H    0.001238    0.000000
  12 H    0.029026    0.000000
  13 H    0.030776    0.000000
  14 H    0.028275    0.000000
  15 H    0.043075    0.000000
  16 H    0.042902    0.000000
  17 Br  -0.938778    0.000000

  TOTAL  -1.001363    0.000000

-------
TIMINGS
-------

Total SCF time: 0 days 0 hours 0 min 9 sec 

Total time                  ....       9.864 sec
Sum of individual times     ....       9.508 sec  ( 96.4%)

Fock matrix formation       ....       8.519 sec  ( 86.4%)
  Split-RI-J                ....       0.951 sec  ( 11.2% of F)
  Chain of spheres X        ....       5.479 sec  ( 64.3% of F)
  XC integration            ....       0.544 sec  (  6.4% of F)
    Basis function eval.    ....       0.213 sec  ( 39.1% of XC)
    Density eval.           ....       0.113 sec  ( 20.7% of XC)
    XC-Functional eval.     ....       0.040 sec  (  7.3% of XC)
    XC-Potential eval.      ....       0.151 sec  ( 27.8% of XC)
Diagonalization             ....       0.005 sec  (  0.1%)
Density matrix formation    ....       0.003 sec  (  0.0%)
Population analysis         ....       0.076 sec  (  0.8%)
Initial guess               ....       0.014 sec  (  0.1%)
Orbital Transformation      ....       0.000 sec  (  0.0%)
Orbital Orthonormalization  ....       0.009 sec  (  0.1%)
DIIS solution               ....       0.001 sec  (  0.0%)
SOSCF solution              ....       0.012 sec  (  0.1%)
Grid generation             ....       0.877 sec  (  8.9%)


-------------------------------------------------------------------------------
                          DFT DISPERSION CORRECTION                            
                                                                               
                              DFTD3 V3.1  Rev 1                                
                          USING Becke-Johnson damping                          
-------------------------------------------------------------------------------
The PBE0 functional is recognized
Active option DFTDOPT                   ...         4   

molecular C6(AA) [au] = 4423.928957 


            DFT-D V3
 parameters
 s6 scaling factor         :     1.0000 
 a1 scaling factor         :     0.4145 
 s8 scaling factor         :     1.2177 
 a2 scaling factor         :     4.8593 
 ad hoc parameters k1-k3   :    16.0000     1.3333    -4.0000 

 Edisp/kcal,au: -10.152678855446  -0.016179321894 
 E6   /kcal   :  -6.269916549 
 E8   /kcal   :  -3.882762306 
 % E8         :  38.243722290 

-------------------------   ----------------
Dispersion correction           -0.016179322
-------------------------   ----------------


-------------------------   --------------------
FINAL SINGLE POINT ENERGY     -5344.063478887015
-------------------------   --------------------

                                *** OPTIMIZATION RUN DONE ***

                            ***************************************
                            *     ORCA property calculations      *
                            ***************************************

                                    ---------------------
                                    Active property flags
                                    ---------------------
   (+) Dipole Moment


------------------------------------------------------------------------------
                       ORCA ELECTRIC PROPERTIES CALCULATION
------------------------------------------------------------------------------

Dipole Moment Calculation                       ... on
Quadrupole Moment Calculation                   ... off
Polarizability Calculation                      ... off
GBWName                                         ... manual_reactants_331.gbw
Electron density file                           ... manual_reactants_331.scfp
The origin for moment calculation is the CENTER OF MASS  = ( 0.341834,  0.416601  1.339484)

-------------
DIPOLE MOMENT
-------------
                                X             Y             Z
Electronic contribution:     29.26512      23.06327      16.16633
Nuclear contribution   :    -31.11638     -25.03200     -21.29439
                        -----------------------------------------
Total Dipole Moment    :     -1.85126      -1.96873      -5.12806
                        -----------------------------------------
Magnitude (a.u.)       :      5.79655
Magnitude (Debye)      :     14.73367



--------------------
Rotational spectrum 
--------------------
 
Rotational constants in cm-1:     0.038975     0.014589     0.011435 
Rotational constants in MHz :  1168.432498   437.367788   342.806249 

 Dipole components along the rotational axes: 
x,y,z [a.u.] :    -5.778064    -0.462477    -0.010418 
x,y,z [Debye]:   -14.686672    -1.175522    -0.026480 

 
[1631282816.098336] [comp0811:53735:0]            sys.c:618  UCX  ERROR shmget(size=2097152 flags=0xfb0) for mm_recv_desc failed: Operation not permitted, please check shared memory limits by 'ipcs -l'
[1631282816.107331] [comp0811:53737:0]            sys.c:618  UCX  ERROR shmget(size=2097152 flags=0xfb0) for mm_recv_desc failed: Operation not permitted, please check shared memory limits by 'ipcs -l'
[1631282816.120618] [comp0811:53736:0]            sys.c:618  UCX  ERROR shmget(size=2097152 flags=0xfb0) for mm_recv_desc failed: Operation not permitted, please check shared memory limits by 'ipcs -l'
[1631282816.127996] [comp0811:53738:0]            sys.c:618  UCX  ERROR shmget(size=2097152 flags=0xfb0) for mm_recv_desc failed: Operation not permitted, please check shared memory limits by 'ipcs -l'
[1631282816.147045] [comp0811:53737:0]            sys.c:618  UCX  ERROR shmget(size=2097152 flags=0xb80) for ucp_am_bufs failed: Operation not permitted, please check shared memory limits by 'ipcs -l'
[1631282816.147044] [comp0811:53735:0]            sys.c:618  UCX  ERROR shmget(size=2097152 flags=0xb80) for ucp_am_bufs failed: Operation not permitted, please check shared memory limits by 'ipcs -l'
[1631282816.159431] [comp0811:53738:0]            sys.c:618  UCX  ERROR shmget(size=2097152 flags=0xb80) for ucp_am_bufs failed: Operation not permitted, please check shared memory limits by 'ipcs -l'
[1631282816.159432] [comp0811:53736:0]            sys.c:618  UCX  ERROR shmget(size=2097152 flags=0xb80) for ucp_am_bufs failed: Operation not permitted, please check shared memory limits by 'ipcs -l'

Timings for individual modules:

Sum of individual times         ...      293.946 sec (=   4.899 min)
GTO integral calculation        ...       17.814 sec (=   0.297 min)   6.1 %
SCF iterations                  ...      199.647 sec (=   3.327 min)  67.9 %
SCF Gradient evaluation         ...       74.543 sec (=   1.242 min)  25.4 %
Geometry relaxation             ...        1.942 sec (=   0.032 min)   0.7 %
                             ****ORCA TERMINATED NORMALLY****
TOTAL RUN TIME: 0 days 0 hours 4 minutes 58 seconds 44 msec
