
                                 *****************
                                 * O   R   C   A *
                                 *****************

           --- An Ab Initio, DFT and Semiempirical electronic structure package ---

                  #######################################################
                  #                        -***-                        #
                  #          Department of theory and spectroscopy      #
                  #               Directorship: Frank Neese             #
                  #        Max Planck Institute fuer Kohlenforschung    #
                  #                Kaiser Wilhelm Platz 1               #
                  #                 D-45470 Muelheim/Ruhr               #
                  #                      Germany                        #
                  #                                                     #
                  #                  All rights reserved                #
                  #                        -***-                        #
                  #######################################################


                         Program Version 4.2.1 -  RELEASE  -


 With contributions from (in alphabetic order):
   Daniel Aravena         : Magnetic Suceptibility
   Michael Atanasov       : Ab Initio Ligand Field Theory (pilot matlab implementation)
   Alexander A. Auer      : GIAO ZORA, VPT2
   Ute Becker             : Parallelization
   Giovanni Bistoni       : ED, misc. LED, open-shell LED, HFLD
   Martin Brehm           : Molecular dynamics
   Dmytro Bykov           : SCF Hessian
   Vijay G. Chilkuri      : MRCI spin determinant printing, contributions to CSF-ICE
   Dipayan Datta          : RHF DLPNO-CCSD density
   Achintya Kumar Dutta   : EOM-CC, STEOM-CC
   Dmitry Ganyushin       : Spin-Orbit,Spin-Spin,Magnetic field MRCI
   Miquel Garcia          : C-PCM Hessian, Gaussian charge scheme
   Yang Guo               : DLPNO-NEVPT2, CIM, IAO-localization
   Andreas Hansen         : Spin unrestricted coupled pair/coupled cluster methods
   Benjamin Helmich-Paris : CASSCF linear response (MC-RPA)
   Lee Huntington         : MR-EOM, pCC
   Robert Izsak           : Overlap fitted RIJCOSX, COSX-SCS-MP3, EOM
   Christian Kollmar      : KDIIS, OOCD, Brueckner-CCSD(T), CCSD density
   Simone Kossmann        : Meta GGA functionals, TD-DFT gradient, OOMP2, MP2 Hessian
   Martin Krupicka        : AUTO-CI
   Lucas Lang             : DCDCAS
   Dagmar Lenk            : GEPOL surface, SMD
   Dimitrios Liakos       : Extrapolation schemes; Compound Job, initial MDCI parallelization
   Dimitrios Manganas     : Further ROCIS development; embedding schemes
   Dimitrios Pantazis     : SARC Basis sets
   Taras Petrenko         : DFT Hessian,TD-DFT gradient, ASA, ECA, R-Raman, ABS, FL, XAS/XES, NRVS
   Peter Pinski           : DLPNO-MP2, DLPNO-MP2 Gradient
   Christoph Reimann      : Effective Core Potentials
   Marius Retegan         : Local ZFS, SOC
   Christoph Riplinger    : Optimizer, TS searches, QM/MM, DLPNO-CCSD(T), (RO)-DLPNO pert. Triples
   Tobias Risthaus        : Range-separated hybrids, TD-DFT gradient, RPA, STAB
   Michael Roemelt        : Original ROCIS implementation
   Masaaki Saitow         : Open-shell DLPNO-CCSD energy and density
   Barbara Sandhoefer     : DKH picture change effects
   Avijit Sen             : IP-ROCIS
   Kantharuban Sivalingam : CASSCF convergence, NEVPT2, FIC-MRCI
   Bernardo de Souza      : ESD, SOC TD-DFT
   Georgi Stoychev        : AutoAux, RI-MP2 NMR
   Willem Van den Heuvel  : Paramagnetic NMR
   Boris Wezisla          : Elementary symmetry handling
   Frank Wennmohs         : Technical directorship


 We gratefully acknowledge several colleagues who have allowed us to
 interface, adapt or use parts of their codes:
   Stefan Grimme, W. Hujo, H. Kruse,             : VdW corrections, initial TS optimization,
                  C. Bannwarth                     DFT functionals, gCP, sTDA/sTD-DF
   Ed Valeev, F. Pavosevic, A. Kumar             : LibInt (2-el integral package), F12 methods
   Garnet Chan, S. Sharma, J. Yang, R. Olivares  : DMRG
   Ulf Ekstrom                                   : XCFun DFT Library
   Mihaly Kallay                                 : mrcc  (arbitrary order and MRCC methods)
   Andreas Klamt, Michael Diedenhofen            : otool_cosmo (COSMO solvation model)
   Jiri Pittner, Ondrej Demel                    : Mk-CCSD
   Frank Weinhold                                : gennbo (NPA and NBO analysis)
   Christopher J. Cramer and Donald G. Truhlar   : smd solvation model
   Lars Goerigk                                  : TD-DFT with DH, B97 family of functionals
   V. Asgeirsson, H. Jonsson                     : NEB implementation
   FAccTs GmbH                                   : IRC, NEB, NEB-TS, Multilevel, MM, QM/MM, CI optimization
   S Lehtola, MJT Oliveira, MAL Marques          : LibXC Library


 Your calculation uses the libint2 library for the computation of 2-el integrals
 For citations please refer to: http://libint.valeyev.net

 Your ORCA version has been built with support for libXC version: 4.2.3
 For citations please refer to: https://tddft.org/programs/libxc/

 This ORCA versions uses:
   CBLAS   interface :  Fast vector & matrix operations
   LAPACKE interface :  Fast linear algebra routines
   SCALAPACK package :  Parallel linear algebra routines


Your calculation utilizes the atom-pairwise dispersion correction
with the Becke-Johnson damping scheme (D3BJ)
Cite in your paper:
S.Grimme, S.Ehrlich, L.Goerigk, J Comput Chem, (2011), 32, 1456–1465 
S.Grimme, J.Antony, S.Ehrlich and H.Krieg, J.Chem.Phys., 132, (2010), 154104 
   

----- Orbital basis set information -----
Your calculation utilizes the basis: def2-SVP
   F. Weigend and R. Ahlrichs, Phys. Chem. Chem. Phys. 7, 3297 (2005).

----- AuxJ basis set information -----
Your calculation utilizes the auxiliary basis: def2/J
   F. Weigend, Phys. Chem. Chem. Phys. 8, 1057 (2006).

================================================================================
                                        WARNINGS
                       Please study these warnings very carefully!
================================================================================


WARNING: Geometry Optimization
  ===> : Switching off AutoStart
         For restart on a previous wavefunction, please use MOREAD

INFO   : the flag for use of LIBINT has been found!

================================================================================
                                       INPUT FILE
================================================================================
NAME = manual_reactants_330.inp
|  1> ! Opt PBE0 RIJCOSX D3BJ def2-SVP def2/J CPCM(Acetone)
|  2> %cpcm
|  3> surfacetype vdw_gaussian
|  4> end
|  5> %geom MaxIter 100 end
|  6> %output 
|  7> xyzfile=True 
|  8> end 
|  9> %scf 
| 10> maxiter 250 
| 11> end
| 12> %output
| 13> Print[P_Hirshfeld] = 1
| 14> end
| 15> % maxcore
| 16> 4000
| 17> %pal nprocs 4
| 18> end
| 19> *xyz -1 1
| 20> C     1.43687   0.02884   0.27949
| 21> C     0.36172   0.92270  -0.32358
| 22> C    -0.70278   1.29851   0.70157
| 23> C    -0.21977   0.37797  -1.61473
| 24> Br   -1.11899  -1.36188  -1.41611
| 25> H     1.88411   0.52002   1.15859
| 26> H     1.00233  -0.92786   0.61371
| 27> H     2.23180  -0.19640  -0.44853
| 28> H     0.85223   1.85889  -0.65616
| 29> H    -1.44651   1.99149   0.27740
| 30> H    -1.23839   0.40287   1.05671
| 31> H    -0.23019   1.77360   1.57521
| 32> H    -0.99013   1.04090  -2.02945
| 33> H     0.55604   0.20075  -2.37008
| 34> Br    2.15068   1.98962   3.53931
| 35> *
| 36> 
| 37>                          ****END OF INPUT****
================================================================================

                       *****************************
                       * Geometry Optimization Run *
                       *****************************

Geometry optimization settings:
Update method            Update   .... BFGS
Choice of coordinates    CoordSys .... Z-matrix Internals
Initial Hessian          InHess   .... Almoef's Model

Convergence Tolerances:
Energy Change            TolE     ....  5.0000e-06 Eh
Max. Gradient            TolMAXG  ....  3.0000e-04 Eh/bohr
RMS Gradient             TolRMSG  ....  1.0000e-04 Eh/bohr
Max. Displacement        TolMAXD  ....  4.0000e-03 bohr
RMS Displacement         TolRMSD  ....  2.0000e-03 bohr
Strict Convergence                ....  False
------------------------------------------------------------------------------
                        ORCA OPTIMIZATION COORDINATE SETUP
------------------------------------------------------------------------------

The optimization will be done in new redundant internal coordinates
Making redundant internal coordinates   ...  (new redundants) done
Evaluating the initial hessian          ...  (Almloef) done
Evaluating the coordinates              ...  done
Calculating the B-matrix                .... done
Calculating the G-matrix                .... done
Diagonalizing the G-matrix              .... done
The first mode is                       ....   38
The number of degrees of freedom        ....   39

    -----------------------------------------------------------------
                    Redundant Internal Coordinates


    -----------------------------------------------------------------
         Definition                    Initial Value    Approx d2E/dq
    -----------------------------------------------------------------
      1. B(C   1,C   0)                  1.5227         0.383723   
      2. B(C   2,C   1)                  1.5249         0.380637   
      3. B(C   3,C   1)                  1.5172         0.391545   
      4. B(Br  4,C   3)                  1.9685         0.250737   
      5. B(H   5,C   0)                  1.1019         0.344746   
      6. B(H   6,C   0)                  1.1026         0.343768   
      7. B(H   7,C   0)                  1.1012         0.345574   
      8. B(H   8,C   1)                  1.1080         0.337060   
      9. B(H   9,C   2)                  1.1015         0.345219   
     10. B(H  10,C   2)                  1.1023         0.344129   
     11. B(H  11,C   2)                  1.1010         0.345782   
     12. B(H  12,C   3)                  1.0977         0.350069   
     13. B(H  13,C   3)                  1.0972         0.350704   
     14. B(Br 14,H  11)                  3.0940         0.000769   
     15. B(Br 14,H   5)                  2.8104         0.002178   
     16. A(C   1,C   0,H   6)          110.5556         0.323277   
     17. A(C   1,C   0,H   5)          109.9316         0.323427   
     18. A(C   1,C   0,H   7)          111.5882         0.323555   
     19. A(H   5,C   0,H   6)          107.7524         0.286770   
     20. A(H   5,C   0,H   7)          109.0037         0.287005   
     21. A(H   6,C   0,H   7)          107.9029         0.286877   
     22. A(C   0,C   1,C   2)          111.7967         0.366193   
     23. A(C   3,C   1,H   8)          102.5676         0.323302   
     24. A(C   0,C   1,H   8)          107.5956         0.322234   
     25. A(C   2,C   1,H   8)          107.6136         0.321808   
     26. A(C   0,C   1,C   3)          113.3842         0.367972   
     27. A(C   2,C   1,C   3)          113.1439         0.367462   
     28. A(C   1,C   2,H  10)          110.8260         0.322904   
     29. A(C   1,C   2,H   9)          111.5621         0.323072   
     30. A(H   9,C   2,H  11)          108.8990         0.287093   
     31. A(C   1,C   2,H  11)          109.8852         0.323158   
     32. A(H   9,C   2,H  10)          107.8877         0.286878   
     33. A(H  10,C   2,H  11)          107.6680         0.286951   
     34. A(H  12,C   3,H  13)          109.4923         0.288356   
     35. A(Br  4,C   3,H  13)          104.4596         0.320889   
     36. A(C   1,C   3,H  13)          111.8917         0.325415   
     37. A(Br  4,C   3,H  12)          104.5552         0.320794   
     38. A(C   1,C   3,H  12)          111.9415         0.325319   
     39. A(C   1,C   3,Br  4)          113.9873         0.363883   
     40. A(C   0,H   5,Br 14)          161.3406         0.159285   
     41. A(C   2,H  11,Br 14)          149.7815         0.144560   
     42. A(H   5,Br 14,H  11)           49.6662         0.108719   
     43. D(C   3,C   1,C   0,H   7)     53.6886         0.011724   
     44. D(H   8,C   1,C   0,H   6)   -179.1030         0.011724   
     45. D(C   2,C   1,C   0,H   6)     62.9461         0.011724   
     46. D(H   8,C   1,C   0,H   5)     62.0571         0.011724   
     47. D(C   2,C   1,C   0,H   5)    -55.8937         0.011724   
     48. D(C   3,C   1,C   0,H   6)    -66.4077         0.011724   
     49. D(H   8,C   1,C   0,H   7)    -59.0067         0.011724   
     50. D(C   3,C   1,C   0,H   5)    174.7524         0.011724   
     51. D(C   2,C   1,C   0,H   7)   -176.9575         0.011724   
     52. D(H  10,C   2,C   1,C   3)     66.4418         0.011545   
     53. D(H   9,C   2,C   1,H   8)     58.7795         0.011545   
     54. D(H   9,C   2,C   1,C   3)    -53.8009         0.011545   
     55. D(H   9,C   2,C   1,C   0)    176.7196         0.011545   
     56. D(H  10,C   2,C   1,H   8)    179.0222         0.011545   
     57. D(H  11,C   2,C   1,H   8)    -62.1035         0.011545   
     58. D(H  11,C   2,C   1,C   3)   -174.6839         0.011545   
     59. D(H  11,C   2,C   1,C   0)     55.8366         0.011545   
     60. D(H  10,C   2,C   1,C   0)    -63.0377         0.011545   
     61. D(H  13,C   3,C   1,C   2)    174.7798         0.012184   
     62. D(H  13,C   3,C   1,C   0)    -56.5542         0.012184   
     63. D(H  12,C   3,C   1,H   8)    -64.1806         0.012184   
     64. D(H  12,C   3,C   1,C   2)     51.4425         0.012184   
     65. D(H  12,C   3,C   1,C   0)   -179.8915         0.012184   
     66. D(Br  4,C   3,C   1,H   8)    177.4081         0.012184   
     67. D(Br  4,C   3,C   1,C   2)    -66.9688         0.012184   
     68. D(H  13,C   3,C   1,H   8)     59.1567         0.012184   
     69. D(Br  4,C   3,C   1,C   0)     61.6971         0.012184   
     70. D(Br 14,H   5,C   0,H   7)    163.4663         0.109277   
     71. D(Br 14,H   5,C   0,H   6)    -79.6847         0.109277   
     72. D(Br 14,H   5,C   0,C   1)     40.8628         0.109277   
     73. D(Br 14,H  11,C   2,C   1)    -35.1210         0.110074   
     74. D(Br 14,H  11,C   2,H  10)     85.6762         0.110074   
     75. D(Br 14,H  11,C   2,H   9)   -157.5946         0.110074   
     76. D(H   5,Br 14,H  11,C   2)      8.7490         0.001500   
     77. D(H  11,Br 14,H   5,C   0)    -13.9308         0.001500   
    -----------------------------------------------------------------

Number of atoms                         .... 15
Number of degrees of freedom            .... 77

         *************************************************************
         *                GEOMETRY OPTIMIZATION CYCLE   1            *
         *************************************************************
---------------------------------
CARTESIAN COORDINATES (ANGSTROEM)
---------------------------------
  C      1.436870    0.028840    0.279490
  C      0.361720    0.922700   -0.323580
  C     -0.702780    1.298510    0.701570
  C     -0.219770    0.377970   -1.614730
  Br    -1.118990   -1.361880   -1.416110
  H      1.884110    0.520020    1.158590
  H      1.002330   -0.927860    0.613710
  H      2.231800   -0.196400   -0.448530
  H      0.852230    1.858890   -0.656160
  H     -1.446510    1.991490    0.277400
  H     -1.238390    0.402870    1.056710
  H     -0.230190    1.773600    1.575210
  H     -0.990130    1.040900   -2.029450
  H      0.556040    0.200750   -2.370080
  Br     2.150680    1.989620    3.539310

----------------------------
CARTESIAN COORDINATES (A.U.)
----------------------------
  NO LB      ZA    FRAG     MASS         X           Y           Z
   0 C     6.0000    0    12.011    2.715291    0.054500    0.528160
   1 C     6.0000    0    12.011    0.683552    1.743650   -0.611478
   2 C     6.0000    0    12.011   -1.328062    2.453828    1.325775
   3 C     6.0000    0    12.011   -0.415305    0.714260   -3.051397
   4 Br   35.0000    0    79.900   -2.114585   -2.573580   -2.676060
   5 H     1.0000    0     1.008    3.560452    0.982695    2.189418
   6 H     1.0000    0     1.008    1.894129   -1.753401    1.159744
   7 H     1.0000    0     1.008    4.217491   -0.371142   -0.847599
   8 H     1.0000    0     1.008    1.610481    3.512793   -1.239963
   9 H     1.0000    0     1.008   -2.733508    3.763371    0.524210
  10 H     1.0000    0     1.008   -2.340218    0.761314    1.996893
  11 H     1.0000    0     1.008   -0.434996    3.351618    2.976716
  12 H     1.0000    0     1.008   -1.871075    1.967016   -3.835105
  13 H     1.0000    0     1.008    1.050763    0.379363   -4.478802
  14 Br   35.0000    0    79.900    4.064196    3.759837    6.688327

--------------------------------
INTERNAL COORDINATES (ANGSTROEM)
--------------------------------
 C      0   0   0     0.000000000000     0.00000000     0.00000000
 C      1   0   0     1.522703729226     0.00000000     0.00000000
 C      2   1   0     1.524901940651   111.79668017     0.00000000
 C      2   1   3     1.517211163780   113.38417436   230.64615127
 Br     4   2   1     1.968533600247   113.98729711    61.69712093
 H      1   2   3     1.101861252609   109.93164157   304.10625878
 H      1   2   3     1.102634531475   110.55557122    62.94614753
 H      1   2   3     1.101208373969   111.58818732   183.04245706
 H      2   1   3     1.107998751173   107.59556327   117.95082641
 H      3   2   1     1.101487985500   111.56210668   176.71959783
 H      3   2   1     1.102349083231   110.82598032   296.96226711
 H      3   2   1     1.101044352331   109.88517590    55.83656815
 H      4   2   1     1.097690025873   111.94154811   180.10848255
 H      4   2   1     1.097197205155   111.89169831   303.44580033
 Br     6   1   2     2.810446840504   161.34058206    40.86278646

---------------------------
INTERNAL COORDINATES (A.U.)
---------------------------
 C      0   0   0     0.000000000000     0.00000000     0.00000000
 C      1   0   0     2.877493031338     0.00000000     0.00000000
 C      2   1   0     2.881647048915   111.79668017     0.00000000
 C      2   1   3     2.867113586873   113.38417436   230.64615127
 Br     4   2   1     3.719989389888   113.98729711    61.69712093
 H      1   2   3     2.082216005010   109.93164157   304.10625878
 H      1   2   3     2.083677290291   110.55557122    62.94614753
 H      1   2   3     2.080982243183   111.58818732   183.04245706
 H      2   1   3     2.093814196443   107.59556327   117.95082641
 H      3   2   1     2.081510632399   111.56210668   176.71959783
 H      3   2   1     2.083137871286   110.82598032   296.96226711
 H      3   2   1     2.080672287206   109.88517590    55.83656815
 H      4   2   1     2.074333528836   111.94154811   180.10848255
 H      4   2   1     2.073402232647   111.89169831   303.44580033
 Br     6   1   2     5.310974842497   161.34058206    40.86278646

---------------------
BASIS SET INFORMATION
---------------------
There are 3 groups of distinct atoms

 Group   1 Type C   : 7s4p1d contracted to 3s2p1d pattern {511/31/1}
 Group   2 Type Br  : 14s10p6d contracted to 5s4p3d pattern {63311/5311/411}
 Group   3 Type H   : 4s1p contracted to 2s1p pattern {31/1}

Atom   0C    basis set group =>   1
Atom   1C    basis set group =>   1
Atom   2C    basis set group =>   1
Atom   3C    basis set group =>   1
Atom   4Br   basis set group =>   2
Atom   5H    basis set group =>   3
Atom   6H    basis set group =>   3
Atom   7H    basis set group =>   3
Atom   8H    basis set group =>   3
Atom   9H    basis set group =>   3
Atom  10H    basis set group =>   3
Atom  11H    basis set group =>   3
Atom  12H    basis set group =>   3
Atom  13H    basis set group =>   3
Atom  14Br   basis set group =>   2
---------------------------------
AUXILIARY/J BASIS SET INFORMATION
---------------------------------
There are 3 groups of distinct atoms

 Group   1 Type C   : 12s5p4d2f1g contracted to 6s4p3d1f1g pattern {711111/2111/211/2/1}
 Group   2 Type Br  : 19s5p5d3f1g contracted to 8s4p3d2f1g pattern {121111111/2111/311/21/1}
 Group   3 Type H   : 5s2p1d contracted to 3s1p1d pattern {311/2/1}

Atom   0C    basis set group =>   1
Atom   1C    basis set group =>   1
Atom   2C    basis set group =>   1
Atom   3C    basis set group =>   1
Atom   4Br   basis set group =>   2
Atom   5H    basis set group =>   3
Atom   6H    basis set group =>   3
Atom   7H    basis set group =>   3
Atom   8H    basis set group =>   3
Atom   9H    basis set group =>   3
Atom  10H    basis set group =>   3
Atom  11H    basis set group =>   3
Atom  12H    basis set group =>   3
Atom  13H    basis set group =>   3
Atom  14Br   basis set group =>   2
[1631282505.857091] [comp0805:33359:0]            sys.c:618  UCX  ERROR shmget(size=2097152 flags=0xfb0) for mm_recv_desc failed: Operation not permitted, please check shared memory limits by 'ipcs -l'
[1631282505.861657] [comp0805:33363:0]            sys.c:618  UCX  ERROR shmget(size=2097152 flags=0xfb0) for mm_recv_desc failed: Operation not permitted, please check shared memory limits by 'ipcs -l'
[1631282505.864881] [comp0805:33353:0]            sys.c:618  UCX  ERROR shmget(size=2097152 flags=0xfb0) for mm_recv_desc failed: Operation not permitted, please check shared memory limits by 'ipcs -l'
[1631282505.865887] [comp0805:33355:0]            sys.c:618  UCX  ERROR shmget(size=2097152 flags=0xfb0) for mm_recv_desc failed: Operation not permitted, please check shared memory limits by 'ipcs -l'
[1631282505.873010] [comp0805:33359:0]            sys.c:618  UCX  ERROR shmget(size=2097152 flags=0xb80) for ucp_am_bufs failed: Operation not permitted, please check shared memory limits by 'ipcs -l'
[1631282505.873038] [comp0805:33353:0]            sys.c:618  UCX  ERROR shmget(size=2097152 flags=0xb80) for ucp_am_bufs failed: Operation not permitted, please check shared memory limits by 'ipcs -l'
[1631282505.873967] [comp0805:33355:0]            sys.c:618  UCX  ERROR shmget(size=2097152 flags=0xb80) for ucp_am_bufs failed: Operation not permitted, please check shared memory limits by 'ipcs -l'


           ************************************************************
           *        Program running with 4 parallel MPI-processes     *
           *              working on a common directory               *
           ************************************************************
------------------------------------------------------------------------------
                           ORCA GTO INTEGRAL CALCULATION
                           -- RI-GTO INTEGRALS CHOSEN --
------------------------------------------------------------------------------

                         BASIS SET STATISTICS AND STARTUP INFO

Gaussian basis set:
 # of primitive gaussian shells          ...  153
 # of primitive gaussian functions       ...  307
 # of contracted shells                  ...   75
 # of contracted basis functions         ...  165
 Highest angular momentum                ...    2
 Maximum contraction depth               ...    6
Auxiliary gaussian basis set:
 # of primitive gaussian shells          ...  234
 # of primitive gaussian functions       ...  602
 # of contracted shells                  ...  141
 # of contracted aux-basis functions     ...  411
 Highest angular momentum                ...    4
 Maximum contraction depth               ...   12
Ratio of auxiliary to basis functions    ...  2.49
Integral package used                  ... LIBINT
 One Electron integrals                  ... done
 Ordering auxiliary basis shells         ... done
 Integral threshhold             Thresh  ...  2.500e-11
 Primitive cut-off               TCut    ...  2.500e-12
 Pre-screening matrix                    ... done
 Shell pair data                         ... 
 Ordering of the shell pairs             ... done (   0.000 sec) 2508 of 2850 pairs
 Determination of significant pairs      ... done (   0.000 sec)
 Creation of shell pair data             ... done (   0.000 sec)
 Storage of shell pair data              ... done (   0.001 sec)
 Shell pair data done in (   0.001 sec)
 Computing two index integrals           ... done
 Cholesky decomposition of the V-matrix  ... done


Timings:
 Total evaluation time                   ...   0.391 sec (  0.007 min)
 One electron matrix time                ...   0.027 sec (  0.000 min) =  6.8%
 Schwartz matrix evaluation time         ...   0.149 sec (  0.002 min) = 38.1%
 Two index repulsion integral time       ...   0.004 sec (  0.000 min) =  0.9%
 Cholesky decomposition of V             ...   0.168 sec (  0.003 min) = 43.0%
 Three index repulsion integral time     ...   0.000 sec (  0.000 min) =  0.0%

[1631282506.302531] [comp0805:33363:0]            sys.c:618  UCX  ERROR shmget(size=2097152 flags=0xb80) for ucp_am_bufs failed: Operation not permitted, please check shared memory limits by 'ipcs -l'
[1631282507.444308] [comp0805:33438:0]            sys.c:618  UCX  ERROR shmget(size=2097152 flags=0xfb0) for mm_recv_desc failed: Operation not permitted, please check shared memory limits by 'ipcs -l'
[1631282507.444341] [comp0805:33446:0]            sys.c:618  UCX  ERROR shmget(size=2097152 flags=0xfb0) for mm_recv_desc failed: Operation not permitted, please check shared memory limits by 'ipcs -l'
[1631282507.444431] [comp0805:33442:0]            sys.c:618  UCX  ERROR shmget(size=2097152 flags=0xfb0) for mm_recv_desc failed: Operation not permitted, please check shared memory limits by 'ipcs -l'
[1631282507.444899] [comp0805:33450:0]            sys.c:618  UCX  ERROR shmget(size=2097152 flags=0xfb0) for mm_recv_desc failed: Operation not permitted, please check shared memory limits by 'ipcs -l'
[1631282507.451325] [comp0805:33438:0]            sys.c:618  UCX  ERROR shmget(size=2097152 flags=0xb80) for ucp_am_bufs failed: Operation not permitted, please check shared memory limits by 'ipcs -l'
[1631282507.452183] [comp0805:33442:0]            sys.c:618  UCX  ERROR shmget(size=2097152 flags=0xb80) for ucp_am_bufs failed: Operation not permitted, please check shared memory limits by 'ipcs -l'
[1631282507.452940] [comp0805:33446:0]            sys.c:618  UCX  ERROR shmget(size=2097152 flags=0xb80) for ucp_am_bufs failed: Operation not permitted, please check shared memory limits by 'ipcs -l'


           ************************************************************
           *        Program running with 4 parallel MPI-processes     *
           *              working on a common directory               *
           ************************************************************
-------------------------------------------------------------------------------
                                 ORCA SCF
-------------------------------------------------------------------------------

------------
SCF SETTINGS
------------
Hamiltonian:
 Density Functional     Method          .... DFT(GTOs)
 Exchange Functional    Exchange        .... PBE
   PBE kappa parameter   XKappa         ....  0.804000
   PBE mue parameter    XMuePBE         ....  0.219520
 Correlation Functional Correlation     .... PBE
   PBE beta parameter  CBetaPBE         ....  0.066725
 LDA part of GGA corr.  LDAOpt          .... PW91-LDA
 Gradients option       PostSCFGGA      .... off
 Hybrid DFT is turned on
   Fraction HF Exchange ScalHFX         ....  0.250000
   Scaling of DF-GGA-X  ScalDFX         ....  0.750000
   Scaling of DF-GGA-C  ScalDFC         ....  1.000000
   Scaling of DF-LDA-C  ScalLDAC        ....  1.000000
   Perturbative correction              ....  0.000000
   Density functional embedding theory  .... OFF
   NL short-range parameter             ....  6.900000
 RI-approximation to the Coulomb term is turned on
   Number of auxiliary basis functions  .... 411
   RIJ-COSX (HFX calculated with COS-X)).... on


General Settings:
 Integral files         IntName         .... manual_reactants_330
 Hartree-Fock type      HFTyp           .... RHF
 Total Charge           Charge          ....   -1
 Multiplicity           Mult            ....    1
 Number of Electrons    NEL             ....  104
 Basis Dimension        Dim             ....  165
 Nuclear Repulsion      ENuc            ....    570.3056893630 Eh

Convergence Acceleration:
 DIIS                   CNVDIIS         .... on
   Start iteration      DIISMaxIt       ....    12
   Startup error        DIISStart       ....  0.200000
   # of expansion vecs  DIISMaxEq       ....     5
   Bias factor          DIISBfac        ....   1.050
   Max. coefficient     DIISMaxC        ....  10.000
 Newton-Raphson         CNVNR           .... off
 SOSCF                  CNVSOSCF        .... on
   Start iteration      SOSCFMaxIt      ....   150
   Startup grad/error   SOSCFStart      ....  0.003300
 Level Shifting         CNVShift        .... on
   Level shift para.    LevelShift      ....    0.2500
   Turn off err/grad.   ShiftErr        ....    0.0010
 Zerner damping         CNVZerner       .... off
 Static damping         CNVDamp         .... on
   Fraction old density DampFac         ....    0.7000
   Max. Damping (<1)    DampMax         ....    0.9800
   Min. Damping (>=0)   DampMin         ....    0.0000
   Turn off err/grad.   DampErr         ....    0.1000
 Fernandez-Rico         CNVRico         .... off

SCF Procedure:
 Maximum # iterations   MaxIter         ....   250
 SCF integral mode      SCFMode         .... Direct
   Integral package                     .... LIBINT
 Reset frequency        DirectResetFreq ....    20
 Integral Threshold     Thresh          ....  2.500e-11 Eh
 Primitive CutOff       TCut            ....  2.500e-12 Eh

Convergence Tolerance:
 Convergence Check Mode ConvCheckMode   .... Total+1el-Energy
 Convergence forced     ConvForced      .... 0
 Energy Change          TolE            ....  1.000e-08 Eh
 1-El. energy change                    ....  1.000e-05 Eh
 Orbital Gradient       TolG            ....  1.000e-05
 Orbital Rotation angle TolX            ....  1.000e-05
 DIIS Error             TolErr          ....  5.000e-07


Diagonalization of the overlap matrix:
Smallest eigenvalue                        ... 2.083e-03
Time for diagonalization                   ...    0.010 sec
Threshold for overlap eigenvalues          ... 1.000e-08
Number of eigenvalues below threshold      ... 0
Time for construction of square roots      ...    0.002 sec
Total time needed                          ...    0.012 sec

-------------------
DFT GRID GENERATION
-------------------

General Integration Accuracy     IntAcc      ...  4.340
Radial Grid Type                 RadialGrid  ... Gauss-Chebyshev
Angular Grid (max. acc.)         AngularGrid ... Lebedev-110
Angular grid pruning method      GridPruning ... 3 (G Style)
Weight generation scheme         WeightScheme... Becke
Basis function cutoff            BFCut       ...    1.0000e-11
Integration weight cutoff        WCut        ...    1.0000e-14
Grids for H and He will be reduced by one unit

# of grid points (after initial pruning)     ...  19550 (   0.0 sec)
# of grid points (after weights+screening)   ...  18366 (   0.0 sec)
nearest neighbour list constructed           ...    0.0 sec
Grid point re-assignment to atoms done       ...    0.0 sec
Grid point division into batches done        ...    0.0 sec
Reduced shell lists constructed in    0.1 sec
[1631282507.581449] [comp0805:33450:0]            sys.c:618  UCX  ERROR shmget(size=2097152 flags=0xb80) for ucp_am_bufs failed: Operation not permitted, please check shared memory limits by 'ipcs -l'

Total number of grid points                  ...    18366
Total number of batches                      ...      297
Average number of points per batch           ...       61
Average number of grid points per atom       ...     1224
Average number of shells per batch           ...    55.14 (73.53%)
Average number of basis functions per batch  ...   116.30 (70.49%)
Average number of large shells per batch     ...    45.80 (83.06%)
Average number of large basis fcns per batch ...    93.64 (80.52%)
Maximum spatial batch extension              ...  18.90, 15.10, 17.34 au
Average spatial batch extension              ...   0.67,  0.63,  0.67 au

Time for grid setup =    0.112 sec

------------------------------
INITIAL GUESS: MODEL POTENTIAL
------------------------------
Loading Hartree-Fock densities                     ... done
Calculating cut-offs                               ... done
Setting up the integral package                    ... done
Initializing the effective Hamiltonian             ... done
Starting the Coulomb interaction                   ... done (   0.0 sec)
Reading the grid                                   ... done
Mapping shells                                     ... done
Starting the XC term evaluation                    ... done (   0.0 sec)
  promolecular density results
     # of electrons  =    102.997083951
     EX              =   -201.621876493
     EC              =     -4.487397419
     EX+EC           =   -206.109273912
Transforming the Hamiltonian                       ... done (   0.0 sec)
Diagonalizing the Hamiltonian                      ... done (   0.0 sec)
Back transforming the eigenvectors                 ... done (   0.0 sec)
Now organizing SCF variables                       ... done
                      ------------------
                      INITIAL GUESS DONE (   0.3 sec)
                      ------------------
--------------------
COSX GRID GENERATION
--------------------

General Integration Accuracy     IntAcc      ...  3.340
Radial Grid Type                 RadialGrid  ... Gauss-Chebyshev
Angular Grid (max. acc.)         AngularGrid ... Lebedev-50
Angular grid pruning method      GridPruning ... 3 (G Style)
Weight generation scheme         WeightScheme... Becke
Basis function cutoff            BFCut       ...    1.0000e-11
Integration weight cutoff        WCut        ...    1.0000e-14
Grids for H and He will be reduced by one unit

# of grid points (after initial pruning)     ...   7284 (   0.0 sec)
# of grid points (after weights+screening)   ...   6856 (   0.0 sec)
nearest neighbour list constructed           ...    0.0 sec
Grid point re-assignment to atoms done       ...    0.0 sec
Grid point division into batches done        ...    0.0 sec
Reduced shell lists constructed in    0.0 sec

Total number of grid points                  ...     6856
Total number of batches                      ...      115
Average number of points per batch           ...       59
Average number of grid points per atom       ...      457
Average number of shells per batch           ...    55.97 (74.62%)
Average number of basis functions per batch  ...   118.50 (71.82%)
Average number of large shells per batch     ...    47.60 (85.05%)
Average number of large basis fcns per batch ...    98.53 (83.15%)
Maximum spatial batch extension              ...  12.93, 16.93, 15.74 au
Average spatial batch extension              ...   0.74,  0.86,  0.81 au

Overlap Fitting                  UseSFitting ... on
Constructing numerical overlap ... done (      0.0 sec)
Inverting numerical overlap    ... done (      0.0 sec)
Obtaining analytic overlap     ... done (      0.0 sec)
Final contraction and storage  ... done (      0.0 sec)


General Integration Accuracy     IntAcc      ...  3.670
Radial Grid Type                 RadialGrid  ... Gauss-Chebyshev
Angular Grid (max. acc.)         AngularGrid ... Lebedev-50
Angular grid pruning method      GridPruning ... 3 (G Style)
Weight generation scheme         WeightScheme... Becke
Basis function cutoff            BFCut       ...    1.0000e-11
Integration weight cutoff        WCut        ...    1.0000e-14
Grids for H and He will be reduced by one unit

# of grid points (after initial pruning)     ...   9160 (   0.0 sec)
# of grid points (after weights+screening)   ...   8593 (   0.0 sec)
nearest neighbour list constructed           ...    0.0 sec
Grid point re-assignment to atoms done       ...    0.0 sec
Grid point division into batches done        ...    0.0 sec
Reduced shell lists constructed in    0.0 sec

Total number of grid points                  ...     8593
Total number of batches                      ...      143
Average number of points per batch           ...       60
Average number of grid points per atom       ...      573
Average number of shells per batch           ...    55.92 (74.56%)
Average number of basis functions per batch  ...   118.19 (71.63%)
Average number of large shells per batch     ...    47.30 (84.58%)
Average number of large basis fcns per batch ...    96.97 (82.05%)
Maximum spatial batch extension              ...  13.86, 17.74, 16.85 au
Average spatial batch extension              ...   0.72,  0.80,  0.73 au

Overlap Fitting                  UseSFitting ... on
Constructing numerical overlap ... done (      0.0 sec)
Inverting numerical overlap    ... done (      0.0 sec)
Obtaining analytic overlap     ... done (      0.0 sec)
Final contraction and storage  ... done (      0.0 sec)


General Integration Accuracy     IntAcc      ...  4.010
Radial Grid Type                 RadialGrid  ... Gauss-Chebyshev
Angular Grid (max. acc.)         AngularGrid ... Lebedev-110
Angular grid pruning method      GridPruning ... 3 (G Style)
Weight generation scheme         WeightScheme... Becke
Basis function cutoff            BFCut       ...    1.0000e-11
Integration weight cutoff        WCut        ...    1.0000e-14
Grids for H and He will be reduced by one unit

# of grid points (after initial pruning)     ...  17048 (   0.0 sec)
# of grid points (after weights+screening)   ...  16055 (   0.0 sec)
nearest neighbour list constructed           ...    0.0 sec
Grid point re-assignment to atoms done       ...    0.0 sec
Grid point division into batches done        ...    0.0 sec
Reduced shell lists constructed in    0.0 sec

Total number of grid points                  ...    16055
Total number of batches                      ...      260
Average number of points per batch           ...       61
Average number of grid points per atom       ...     1070
Average number of shells per batch           ...    55.23 (73.64%)
Average number of basis functions per batch  ...   116.56 (70.64%)
Average number of large shells per batch     ...    46.08 (83.43%)
Average number of large basis fcns per batch ...    94.95 (81.46%)
Maximum spatial batch extension              ...  18.33, 17.64, 16.68 au
Average spatial batch extension              ...   0.71,  0.70,  0.75 au

Overlap Fitting                  UseSFitting ... on
Constructing numerical overlap ... done (      0.0 sec)
Inverting numerical overlap    ... done (      0.0 sec)
Obtaining analytic overlap     ... done (      0.0 sec)
Final contraction and storage  ... done (      0.0 sec)

Time for X-Grid setup             =    0.204 sec

--------------------
CPCM SOLVATION MODEL
--------------------
CPCM parameters:
  Epsilon                                         ...      20.7000
  Refrac                                          ...       1.3590
  Rsolv                                           ...       1.3000
  Surface type                                    ... GAUSSIAN VDW
  Epsilon function type                           ...         CPCM
Radii:
 Radius for C  used is    3.8550 Bohr (=   2.0400 Ang.)
 Radius for Br used is    4.1952 Bohr (=   2.2200 Ang.)
 Radius for H  used is    2.4944 Bohr (=   1.3200 Ang.)
Calculating surface                               ...        done! (  0.0s)
GEPOL surface points                              ...          919
GEPOL Volume                                      ...    1176.0752
GEPOL Surface-area                                ...     693.7319
Calculating surface distance matrix               ...        done! (  0.0s)
Performing Cholesky decomposition & store         ...        done! (  0.0s)
Overall time for CPCM initialization              ...                 0.0s
--------------
SCF ITERATIONS
--------------
ITER       Energy         Delta-E        Max-DP      RMS-DP      [F,P]     Damp
               ***  Starting incremental Fock matrix formation  ***
  0  -5304.6401124896   0.000000000000 0.11143212  0.00210865  0.1570135 0.7000
  1  -5304.7146121983  -0.074499708685 0.08427005  0.00158974  0.0846422 0.7000
                               ***Turning on DIIS***
  2  -5304.7481974654  -0.033585267098 0.16485942  0.00302827  0.0411187 0.0000
  3  -5304.7970348724  -0.048837406967 0.03759466  0.00095393  0.0438780 0.0000
  4  -5304.8088490307  -0.011814158269 0.01903853  0.00030378  0.0086341 0.0000
                      *** Initiating the SOSCF procedure ***
                           *** Shutting down DIIS ***
                      *** Re-Reading the Fockian *** 
                      *** Removing any level shift *** 
ITER      Energy       Delta-E        Grad      Rot      Max-DP    RMS-DP
  5  -5304.80934963  -0.0005006012  0.000554  0.000554  0.001745  0.000082
               *** Restarting incremental Fock matrix formation ***
  6  -5304.80936738  -0.0000177498  0.000283  0.000606  0.001176  0.000051
  7  -5304.80936826  -0.0000008828  0.000259  0.000170  0.000748  0.000014
  8  -5304.80937079  -0.0000025274  0.000027  0.000042  0.000174  0.000003
  9  -5304.80937073   0.0000000647  0.000018  0.000019  0.000063  0.000001
 10  -5304.80937076  -0.0000000357  0.000003  0.000006  0.000019  0.000000
 11  -5304.80937080  -0.0000000377  0.000004  0.000003  0.000012  0.000000
                  ***Gradient check signals convergence***
              ***Rediagonalizing the Fockian in SOSCF/NRSCF***

               *****************************************************
               *                     SUCCESS                       *
               *           SCF CONVERGED AFTER  12 CYCLES          *
               *****************************************************

Setting up the final grid:

General Integration Accuracy     IntAcc      ...  4.670
Radial Grid Type                 RadialGrid  ... Gauss-Chebyshev
Angular Grid (max. acc.)         AngularGrid ... Lebedev-302
Angular grid pruning method      GridPruning ... 3 (G Style)
Weight generation scheme         WeightScheme... Becke
Basis function cutoff            BFCut       ...    1.0000e-11
Integration weight cutoff        WCut        ...    1.0000e-14
Grids for H and He will be reduced by one unit

# of grid points (after initial pruning)     ...  74626 (   0.0 sec)
# of grid points (after weights+screening)   ...  69140 (   0.1 sec)
nearest neighbour list constructed           ...    0.0 sec
Grid point re-assignment to atoms done       ...    0.0 sec
Grid point division into batches done        ...    0.3 sec
Reduced shell lists constructed in    0.4 sec

Total number of grid points                  ...    69140
Total number of batches                      ...     1089
Average number of points per batch           ...       63
Average number of grid points per atom       ...     4609
Average number of shells per batch           ...    52.53 (70.03%)
Average number of basis functions per batch  ...   110.15 (66.76%)
Average number of large shells per batch     ...    42.48 (80.87%)
Average number of large basis fcns per batch ...    86.26 (78.31%)
Maximum spatial batch extension              ...  16.29, 13.32, 16.09 au
Average spatial batch extension              ...   0.47,  0.44,  0.46 au

Final grid set up in    0.4 sec
Final integration                            ... done (   0.2 sec)
Change in XC energy                          ...     0.000029142
Integrated number of electrons               ...   104.000016368
Previous integrated no of electrons          ...   104.001132244
Old exchange energy                            =    -50.835011774 Eh
New exchange energy                            =    -50.835018205 Eh
Exchange energy change after final integration =     -0.000006431 Eh
Total energy after final integration           =  -5304.809348043 Eh
Final COS-X integration done in                =     1.158 sec

----------------
TOTAL SCF ENERGY
----------------

Total Energy       :        -5304.80934804 Eh         -144351.20103 eV

Components:
Nuclear Repulsion  :          570.30568936 Eh           15518.80677 eV
Electronic Energy  :        -5875.11503741 Eh         -159870.00780 eV
One Electron Energy:        -8531.58924868 Eh         -232156.34606 eV
Two Electron Energy:         2656.47421127 Eh           72286.33826 eV
CPCM Dielectric    :           -0.10332995 Eh              -2.81175 eV

Virial components:
Potential Energy   :       -10602.60821428 Eh         -288511.63716 eV
Kinetic Energy     :         5297.79886624 Eh          144160.43613 eV
Virial Ratio       :            2.00132328


DFT components:
N(Alpha)           :       52.000008184219 electrons
N(Beta)            :       52.000008184219 electrons
N(Total)           :      104.000016368439 electrons
E(X)               :     -151.833480353082 Eh       
E(C)               :       -4.537986623590 Eh       
E(XC)              :     -156.371466976672 Eh       
DFET-embed. en.    :        0.000000000000 Eh       
CPCM Solvation Model Properties:
Surface-charge          :            0.97746416
Charge-correction       :           -0.00289518 Eh              -0.07878 eV
Free-energy (cav+disp)  :            0.00419913 Eh               0.11426 eV
Corrected G(solv)       :        -5304.80804409 Eh         -144351.16555 eV

---------------
SCF CONVERGENCE
---------------

  Last Energy change         ...    4.5753e-08  Tolerance :   1.0000e-08
  Last MAX-Density change    ...    5.3291e-15  Tolerance :   1.0000e-07
  Last RMS-Density change    ...    8.0195e-17  Tolerance :   5.0000e-09
  Last Orbital Gradient      ...    9.2734e-07  Tolerance :   1.0000e-05
  Last Orbital Rotation      ...    7.8439e-07  Tolerance :   1.0000e-05

             **** THE GBW FILE WAS UPDATED (manual_reactants_330.gbw) ****
             **** DENSITY FILE WAS UPDATED (manual_reactants_330.scfp) ****
             **** ENERGY FILE WAS UPDATED (manual_reactants_330.en.tmp) ****
             **** THE GBW FILE WAS UPDATED (manual_reactants_330.gbw) ****
             **** DENSITY FILE WAS UPDATED (manual_reactants_330.scfp) ****
----------------
ORBITAL ENERGIES
----------------

  NO   OCC          E(Eh)            E(eV) 
   0   2.0000    -483.173332    -13147.8148 
   1   2.0000    -483.064447    -13144.8519 
   2   2.0000     -62.609380     -1703.6878 
   3   2.0000     -62.499536     -1700.6988 
   4   2.0000     -56.398545     -1534.6824 
   5   2.0000     -56.396285     -1534.6209 
   6   2.0000     -56.396218     -1534.6191 
   7   2.0000     -56.287606     -1531.6636 
   8   2.0000     -56.287423     -1531.6587 
   9   2.0000     -56.287073     -1531.6491 
  10   2.0000     -10.275517      -279.6110 
  11   2.0000     -10.236345      -278.5451 
  12   2.0000     -10.210945      -277.8539 
  13   2.0000     -10.207307      -277.7549 
  14   2.0000      -8.754617      -238.2252 
  15   2.0000      -8.642988      -235.1877 
  16   2.0000      -6.568792      -178.7459 
  17   2.0000      -6.556907      -178.4225 
  18   2.0000      -6.556688      -178.4165 
  19   2.0000      -6.449397      -175.4970 
  20   2.0000      -6.449355      -175.4959 
  21   2.0000      -6.449122      -175.4895 
  22   2.0000      -2.654320       -72.2277 
  23   2.0000      -2.651146       -72.1414 
  24   2.0000      -2.650902       -72.1347 
  25   2.0000      -2.641301       -71.8735 
  26   2.0000      -2.641296       -71.8733 
  27   2.0000      -2.536292       -69.0160 
  28   2.0000      -2.536249       -69.0148 
  29   2.0000      -2.536124       -69.0114 
  30   2.0000      -2.536102       -69.0108 
  31   2.0000      -2.536031       -69.0089 
  32   2.0000      -0.841552       -22.8998 
  33   2.0000      -0.776559       -21.1312 
  34   2.0000      -0.684007       -18.6128 
  35   2.0000      -0.674022       -18.3411 
  36   2.0000      -0.652059       -17.7434 
  37   2.0000      -0.557054       -15.1582 
  38   2.0000      -0.475985       -12.9522 
  39   2.0000      -0.461019       -12.5450 
  40   2.0000      -0.441531       -12.0147 
  41   2.0000      -0.387481       -10.5439 
  42   2.0000      -0.385079       -10.4785 
  43   2.0000      -0.371510       -10.1093 
  44   2.0000      -0.351418        -9.5626 
  45   2.0000      -0.338919        -9.2224 
  46   2.0000      -0.322978        -8.7887 
  47   2.0000      -0.283273        -7.7082 
  48   2.0000      -0.281030        -7.6472 
  49   2.0000      -0.214967        -5.8496 
  50   2.0000      -0.214718        -5.8428 
  51   2.0000      -0.212537        -5.7834 
  52   0.0000       0.023341         0.6351 
  53   0.0000       0.077986         2.1221 
  54   0.0000       0.122838         3.3426 
  55   0.0000       0.124589         3.3902 
  56   0.0000       0.140671         3.8278 
  57   0.0000       0.148578         4.0430 
  58   0.0000       0.154010         4.1908 
  59   0.0000       0.175688         4.7807 
  60   0.0000       0.187281         5.0962 
  61   0.0000       0.208580         5.6757 
  62   0.0000       0.211862         5.7651 
  63   0.0000       0.253163         6.8889 
  64   0.0000       0.261685         7.1208 
  65   0.0000       0.360401         9.8070 
  66   0.0000       0.396260        10.7828 
  67   0.0000       0.403469        10.9789 
  68   0.0000       0.423943        11.5361 
  69   0.0000       0.448609        12.2073 
  70   0.0000       0.455285        12.3889 
  71   0.0000       0.476412        12.9638 
  72   0.0000       0.495881        13.4936 
  73   0.0000       0.501018        13.6334 
  74   0.0000       0.557415        15.1680 
  75   0.0000       0.573237        15.5986 
  76   0.0000       0.583455        15.8766 
  77   0.0000       0.605571        16.4784 
  78   0.0000       0.609899        16.5962 
  79   0.0000       0.625291        17.0150 
  80   0.0000       0.629392        17.1266 
  81   0.0000       0.632604        17.2140 
  82   0.0000       0.634737        17.2721 
  83   0.0000       0.636609        17.3230 
  84   0.0000       0.637939        17.3592 
  85   0.0000       0.643001        17.4969 
  86   0.0000       0.668255        18.1841 
  87   0.0000       0.671572        18.2744 
  88   0.0000       0.672729        18.3059 
  89   0.0000       0.683797        18.6071 
  90   0.0000       0.701794        19.0968 
  91   0.0000       0.705853        19.2072 
  92   0.0000       0.715006        19.4563 
  93   0.0000       0.720811        19.6143 
  94   0.0000       0.730239        19.8708 
  95   0.0000       0.734512        19.9871 
  96   0.0000       0.750688        20.4273 
  97   0.0000       0.763959        20.7884 
  98   0.0000       0.772961        21.0333 
  99   0.0000       0.776197        21.1214 
 100   0.0000       0.850196        23.1350 
 101   0.0000       0.866386        23.5756 
 102   0.0000       0.946239        25.7485 
 103   0.0000       1.004708        27.3395 
 104   0.0000       1.029811        28.0226 
 105   0.0000       1.086774        29.5726 
 106   0.0000       1.101083        29.9620 
 107   0.0000       1.129596        30.7379 
 108   0.0000       1.182891        32.1881 
 109   0.0000       1.192922        32.4610 
 110   0.0000       1.284124        34.9428 
 111   0.0000       1.355525        36.8857 
 112   0.0000       1.452412        39.5221 
 113   0.0000       1.560953        42.4757 
 114   0.0000       1.567430        42.6519 
 115   0.0000       1.591074        43.2953 
 116   0.0000       1.594225        43.3811 
 117   0.0000       1.670358        45.4527 
 118   0.0000       1.748082        47.5677 
 119   0.0000       1.769503        48.1506 
 120   0.0000       1.781417        48.4748 
 121   0.0000       1.808972        49.2246 
 122   0.0000       1.826262        49.6951 
 123   0.0000       1.830957        49.8229 
 124   0.0000       1.856230        50.5106 
 125   0.0000       1.866259        50.7835 
 126   0.0000       1.880795        51.1790 
 127   0.0000       1.891603        51.4731 
 128   0.0000       1.940353        52.7997 
 129   0.0000       1.960060        53.3359 
 130   0.0000       1.979005        53.8515 
 131   0.0000       1.989104        54.1263 
 132   0.0000       2.062824        56.1323 
 133   0.0000       2.089901        56.8691 
 134   0.0000       2.149657        58.4951 
 135   0.0000       2.284397        62.1616 
 136   0.0000       2.287085        62.2347 
 137   0.0000       2.302157        62.6449 
 138   0.0000       2.367880        64.4333 
 139   0.0000       2.414943        65.7139 
 140   0.0000       2.447068        66.5881 
 141   0.0000       2.493163        67.8424 
 142   0.0000       2.588396        70.4338 
 143   0.0000       2.605651        70.9034 
 144   0.0000       2.654787        72.2404 
 145   0.0000       2.676144        72.8216 
 146   0.0000       2.752864        74.9092 
 147   0.0000       2.882087        78.4256 
 148   0.0000       2.898376        78.8688 
 149   0.0000       2.929848        79.7252 
 150   0.0000       2.961143        80.5768 
 151   0.0000       2.970402        80.8287 
 152   0.0000       3.062601        83.3376 
 153   0.0000       3.086709        83.9936 
 154   0.0000       3.095243        84.2259 
 155   0.0000       3.492460        95.0347 
 156   0.0000       3.499848        95.2357 
 157   0.0000       3.562119        96.9302 
 158   0.0000       3.562266        96.9342 
 159   0.0000       3.562600        96.9433 
 160   0.0000       3.588701        97.6535 
 161   0.0000       3.595726        97.8447 
 162   0.0000       3.597007        97.8795 
 163   0.0000       3.617553        98.4386 
 164   0.0000       3.823017       104.0296 

                    ********************************
                    * MULLIKEN POPULATION ANALYSIS *
                    ********************************

-----------------------
MULLIKEN ATOMIC CHARGES
-----------------------
   0 C :   -0.041387
   1 C :   -0.192032
   2 C :   -0.048930
   3 C :   -0.065953
   4 Br:   -0.209384
   5 H :    0.024070
   6 H :    0.031522
   7 H :    0.038229
   8 H :    0.060123
   9 H :    0.043472
  10 H :    0.034094
  11 H :    0.026872
  12 H :    0.104871
  13 H :    0.104163
  14 Br:   -0.909729
Sum of atomic charges:   -1.0000000

--------------------------------
MULLIKEN REDUCED ORBITAL CHARGES
--------------------------------
  0 C s       :     3.024200  s :     3.024200
      pz      :     1.020090  p :     2.990475
      px      :     0.970356
      py      :     1.000029
      dz2     :     0.003139  d :     0.026712
      dxz     :     0.007693
      dyz     :     0.005174
      dx2y2   :     0.004796
      dxy     :     0.005909
  1 C s       :     3.133662  s :     3.133662
      pz      :     0.976242  p :     3.012363
      px      :     1.014353
      py      :     1.021768
      dz2     :     0.008985  d :     0.046008
      dxz     :     0.012010
      dyz     :     0.008859
      dx2y2   :     0.006729
      dxy     :     0.009426
  2 C s       :     3.034359  s :     3.034359
      pz      :     0.995276  p :     2.987700
      px      :     0.980342
      py      :     1.012082
      dz2     :     0.004001  d :     0.026872
      dxz     :     0.007337
      dyz     :     0.005457
      dx2y2   :     0.002148
      dxy     :     0.007928
  3 C s       :     3.137912  s :     3.137912
      pz      :     1.047362  p :     2.892217
      px      :     1.004971
      py      :     0.839885
      dz2     :     0.006468  d :     0.035823
      dxz     :     0.009389
      dyz     :     0.006018
      dx2y2   :     0.004945
      dxy     :     0.009002
  4 Brs       :     7.972355  s :     7.972355
      pz      :     5.958857  p :    17.194659
      px      :     5.827108
      py      :     5.408694
      dz2     :     2.006189  d :    10.042370
      dxz     :     2.002684
      dyz     :     2.006363
      dx2y2   :     2.012042
      dxy     :     2.015092
  5 H s       :     0.950195  s :     0.950195
      pz      :     0.012582  p :     0.025735
      px      :     0.006032
      py      :     0.007122
  6 H s       :     0.944379  s :     0.944379
      pz      :     0.005910  p :     0.024099
      px      :     0.006113
      py      :     0.012077
  7 H s       :     0.938194  s :     0.938194
      pz      :     0.008905  p :     0.023577
      px      :     0.009510
      py      :     0.005161
  8 H s       :     0.917926  s :     0.917926
      pz      :     0.004661  p :     0.021951
      px      :     0.005914
      py      :     0.011376
  9 H s       :     0.932945  s :     0.932945
      pz      :     0.005834  p :     0.023584
      px      :     0.008919
      py      :     0.008831
 10 H s       :     0.941784  s :     0.941784
      pz      :     0.005694  p :     0.024122
      px      :     0.006906
      py      :     0.011522
 11 H s       :     0.948453  s :     0.948453
      pz      :     0.011141  p :     0.024674
      px      :     0.006734
      py      :     0.006799
 12 H s       :     0.872452  s :     0.872452
      pz      :     0.005473  p :     0.022678
      px      :     0.009640
      py      :     0.007565
 13 H s       :     0.873127  s :     0.873127
      pz      :     0.009173  p :     0.022710
      px      :     0.009901
      py      :     0.003636
 14 Brs       :     7.995865  s :     7.995865
      pz      :     5.954858  p :    17.913266
      px      :     5.974070
      py      :     5.984338
      dz2     :     2.000145  d :    10.000599
      dxz     :     2.000123
      dyz     :     2.000260
      dx2y2   :     2.000064
      dxy     :     2.000008


                     *******************************
                     * LOEWDIN POPULATION ANALYSIS *
                     *******************************

----------------------
LOEWDIN ATOMIC CHARGES
----------------------
   0 C :   -0.077565
   1 C :   -0.068999
   2 C :   -0.073433
   3 C :   -0.070705
   4 Br:   -0.035948
   5 H :    0.009069
   6 H :    0.019391
   7 H :    0.026834
   8 H :    0.045778
   9 H :    0.028198
  10 H :    0.021938
  11 H :    0.016336
  12 H :    0.039348
  13 H :    0.039282
  14 Br:   -0.919524

-------------------------------
LOEWDIN REDUCED ORBITAL CHARGES
-------------------------------
  0 C s       :     2.846207  s :     2.846207
      pz      :     1.068157  p :     3.161382
      px      :     1.039005
      py      :     1.054220
      dz2     :     0.008022  d :     0.069976
      dxz     :     0.020830
      dyz     :     0.013361
      dx2y2   :     0.011320
      dxy     :     0.016444
  1 C s       :     2.844700  s :     2.844700
      pz      :     1.024639  p :     3.115542
      px      :     1.041715
      py      :     1.049188
      dz2     :     0.020084  d :     0.108757
      dxz     :     0.030461
      dyz     :     0.021166
      dx2y2   :     0.013878
      dxy     :     0.023167
  2 C s       :     2.846320  s :     2.846320
      pz      :     1.049809  p :     3.157058
      px      :     1.040247
      py      :     1.067002
      dz2     :     0.009934  d :     0.070055
      dxz     :     0.020274
      dyz     :     0.014043
      dx2y2   :     0.005336
      dxy     :     0.020467
  3 C s       :     2.916376  s :     2.916376
      pz      :     1.081771  p :     3.069989
      px      :     1.057530
      py      :     0.930688
      dz2     :     0.015126  d :     0.084341
      dxz     :     0.023499
      dyz     :     0.013866
      dx2y2   :     0.010895
      dxy     :     0.020955
  4 Brs       :     7.828409  s :     7.828409
      pz      :     5.938657  p :    17.154429
      px      :     5.811058
      py      :     5.404715
      dz2     :     2.008568  d :    10.053109
      dxz     :     2.003061
      dyz     :     2.007791
      dx2y2   :     2.014326
      dxy     :     2.019363
  5 H s       :     0.917275  s :     0.917275
      pz      :     0.036156  p :     0.073656
      px      :     0.017328
      py      :     0.020172
  6 H s       :     0.913010  s :     0.913010
      pz      :     0.015935  p :     0.067599
      px      :     0.017425
      py      :     0.034239
  7 H s       :     0.906787  s :     0.906787
      pz      :     0.024771  p :     0.066379
      px      :     0.027533
      py      :     0.014075
  8 H s       :     0.886957  s :     0.886957
      pz      :     0.015129  p :     0.067265
      px      :     0.018901
      py      :     0.033235
  9 H s       :     0.905582  s :     0.905582
      pz      :     0.016674  p :     0.066220
      px      :     0.025691
      py      :     0.023854
 10 H s       :     0.910773  s :     0.910773
      pz      :     0.016239  p :     0.067289
      px      :     0.019284
      py      :     0.031767
 11 H s       :     0.913849  s :     0.913849
      pz      :     0.032878  p :     0.069815
      px      :     0.019010
      py      :     0.017927
 12 H s       :     0.889565  s :     0.889565
      pz      :     0.018189  p :     0.071087
      px      :     0.028348
      py      :     0.024550
 13 H s       :     0.889546  s :     0.889546
      pz      :     0.029374  p :     0.071172
      px      :     0.029800
      py      :     0.011998
 14 Brs       :     7.994436  s :     7.994436
      pz      :     5.958688  p :    17.924413
      px      :     5.979466
      py      :     5.986259
      dz2     :     2.000161  d :    10.000675
      dxz     :     2.000139
      dyz     :     2.000295
      dx2y2   :     2.000074
      dxy     :     2.000007


                      *****************************
                      * MAYER POPULATION ANALYSIS *
                      *****************************

  NA   - Mulliken gross atomic population
  ZA   - Total nuclear charge
  QA   - Mulliken gross atomic charge
  VA   - Mayer's total valence
  BVA  - Mayer's bonded valence
  FA   - Mayer's free valence

  ATOM       NA         ZA         QA         VA         BVA        FA
  0 C      6.0414     6.0000    -0.0414     3.8918     3.8918    -0.0000
  1 C      6.1920     6.0000    -0.1920     4.1274     4.1274    -0.0000
  2 C      6.0489     6.0000    -0.0489     3.9097     3.9097    -0.0000
  3 C      6.0660     6.0000    -0.0660     3.8808     3.8808     0.0000
  4 Br    35.2094    35.0000    -0.2094     1.0397     1.0397    -0.0000
  5 H      0.9759     1.0000     0.0241     1.0710     1.0710     0.0000
  6 H      0.9685     1.0000     0.0315     1.0056     1.0056    -0.0000
  7 H      0.9618     1.0000     0.0382     0.9861     0.9861     0.0000
  8 H      0.9399     1.0000     0.0601     0.9644     0.9644     0.0000
  9 H      0.9565     1.0000     0.0435     0.9851     0.9851     0.0000
 10 H      0.9659     1.0000     0.0341     1.0048     1.0048     0.0000
 11 H      0.9731     1.0000     0.0269     1.0490     1.0490    -0.0000
 12 H      0.8951     1.0000     0.1049     0.9694     0.9694    -0.0000
 13 H      0.8958     1.0000     0.1042     0.9694     0.9694    -0.0000
 14 Br    35.9097    35.0000    -0.9097     0.1821     0.1821    -0.0000

  Mayer bond orders larger than 0.100000
B(  0-C ,  1-C ) :   1.0583 B(  0-C ,  5-H ) :   0.9440 B(  0-C ,  6-H ) :   0.9606 
B(  0-C ,  7-H ) :   0.9657 B(  1-C ,  2-C ) :   1.0588 B(  1-C ,  3-C ) :   1.0428 
B(  1-C ,  8-H ) :   0.9090 B(  2-C ,  9-H ) :   0.9681 B(  2-C , 10-H ) :   0.9637 
B(  2-C , 11-H ) :   0.9528 B(  3-C ,  4-Br) :   0.9651 B(  3-C , 12-H ) :   0.9478 
B(  3-C , 13-H ) :   0.9467 B(  5-H , 14-Br) :   0.1101 


------------------
HIRSHFELD ANALYSIS
------------------

Total integrated alpha density =     52.000566122
Total integrated beta density  =     52.000566122

  ATOM     CHARGE      SPIN    
   0 C   -0.089732    0.000000
   1 C   -0.002705    0.000000
   2 C   -0.084966    0.000000
   3 C    0.010247    0.000000
   4 Br  -0.150348    0.000000
   5 H   -0.001213    0.000000
   6 H    0.012841    0.000000
   7 H    0.023599    0.000000
   8 H    0.036388    0.000000
   9 H    0.024657    0.000000
  10 H    0.015733    0.000000
  11 H    0.007274    0.000000
  12 H    0.044866    0.000000
  13 H    0.044846    0.000000
  14 Br  -0.892620    0.000000

  TOTAL  -1.001132    0.000000

-------
TIMINGS
-------

Total SCF time: 0 days 0 hours 0 min 15 sec 

Total time                  ....      15.080 sec
Sum of individual times     ....      14.910 sec  ( 98.9%)

Fock matrix formation       ....      13.906 sec  ( 92.2%)
  Split-RI-J                ....       1.855 sec  ( 13.3% of F)
  Chain of spheres X        ....       7.828 sec  ( 56.3% of F)
  COS-X 1 center corr.      ....       0.000 sec  (  0.0% of F)
  XC integration            ....       0.788 sec  (  5.7% of F)
    Basis function eval.    ....       0.319 sec  ( 40.4% of XC)
    Density eval.           ....       0.148 sec  ( 18.8% of XC)
    XC-Functional eval.     ....       0.065 sec  (  8.3% of XC)
    XC-Potential eval.      ....       0.210 sec  ( 26.6% of XC)
Diagonalization             ....       0.022 sec  (  0.1%)
Density matrix formation    ....       0.005 sec  (  0.0%)
Population analysis         ....       0.051 sec  (  0.3%)
Initial guess               ....       0.162 sec  (  1.1%)
Orbital Transformation      ....       0.000 sec  (  0.0%)
Orbital Orthonormalization  ....       0.000 sec  (  0.0%)
DIIS solution               ....       0.006 sec  (  0.0%)
SOSCF solution              ....       0.015 sec  (  0.1%)
Grid generation             ....       0.744 sec  (  4.9%)


-------------------------------------------------------------------------------
                          DFT DISPERSION CORRECTION                            
                                                                               
                              DFTD3 V3.1  Rev 1                                
                          USING Becke-Johnson damping                          
-------------------------------------------------------------------------------
The PBE0 functional is recognized
Active option DFTDOPT                   ...         4   

molecular C6(AA) [au] = 3451.589494 


            DFT-D V3
 parameters
 s6 scaling factor         :     1.0000 
 a1 scaling factor         :     0.4145 
 s8 scaling factor         :     1.2177 
 a2 scaling factor         :     4.8593 
 ad hoc parameters k1-k3   :    16.0000     1.3333    -4.0000 

 Edisp/kcal,au: -7.725300208576  -0.012311048205 
 E6   /kcal   :  -4.738885549 
 E8   /kcal   :  -2.986414659 
 % E8         :  38.657587130 

-------------------------   ----------------
Dispersion correction           -0.012311048
-------------------------   ----------------


-------------------------   --------------------
FINAL SINGLE POINT ENERGY     -5304.821659091216
-------------------------   --------------------

[1631282523.532791] [comp0805:33682:0]            sys.c:618  UCX  ERROR shmget(size=2097152 flags=0xfb0) for mm_recv_desc failed: Operation not permitted, please check shared memory limits by 'ipcs -l'
[1631282523.539535] [comp0805:33680:0]            sys.c:618  UCX  ERROR shmget(size=2097152 flags=0xfb0) for mm_recv_desc failed: Operation not permitted, please check shared memory limits by 'ipcs -l'
[1631282523.555484] [comp0805:33683:0]            sys.c:618  UCX  ERROR shmget(size=2097152 flags=0xfb0) for mm_recv_desc failed: Operation not permitted, please check shared memory limits by 'ipcs -l'
[1631282523.559739] [comp0805:33681:0]            sys.c:618  UCX  ERROR shmget(size=2097152 flags=0xfb0) for mm_recv_desc failed: Operation not permitted, please check shared memory limits by 'ipcs -l'
[1631282523.567177] [comp0805:33680:0]            sys.c:618  UCX  ERROR shmget(size=2097152 flags=0xb80) for ucp_am_bufs failed: Operation not permitted, please check shared memory limits by 'ipcs -l'
[1631282523.567667] [comp0805:33682:0]            sys.c:618  UCX  ERROR shmget(size=2097152 flags=0xb80) for ucp_am_bufs failed: Operation not permitted, please check shared memory limits by 'ipcs -l'


           ************************************************************
           *        Program running with 4 parallel MPI-processes     *
           *              working on a common directory               *
           ************************************************************
[1631282523.571365] [comp0805:33681:0]            sys.c:618  UCX  ERROR shmget(size=2097152 flags=0xb80) for ucp_am_bufs failed: Operation not permitted, please check shared memory limits by 'ipcs -l'
------------------------------------------------------------------------------
                         ORCA SCF GRADIENT CALCULATION
------------------------------------------------------------------------------

Gradient of the Kohn-Sham DFT energy:
Kohn-Sham wavefunction type      ... RKS
Hartree-Fock exchange scaling    ...    0.250
Number of operators              ...    1
Number of atoms                  ...   15
Basis set dimensions             ...  165
Integral neglect threshold       ... 2.5e-11
Integral primitive cutoff        ... 2.5e-12

Nuclear repulsion gradient       ... done
One Electron Gradient            ... done
Pre-screening matrix             ... done
RI-J gradient                    ... [1631282524.532910] [comp0805:33683:0]            sys.c:618  UCX  ERROR shmget(size=2097152 flags=0xb80) for ucp_am_bufs failed: Operation not permitted, please check shared memory limits by 'ipcs -l'
done
COSX-gradient                    ... done
Exchange-correlation gradient    ... done
Dispersion correction            ... done

------------------
CARTESIAN GRADIENT
------------------

   1   C   :    0.000196292    0.000247653    0.000683203
   2   C   :   -0.000051810   -0.000018387    0.000096851
   3   C   :    0.000037007    0.000235259    0.000828956
   4   C   :   -0.000182104   -0.000233637    0.000155134
   5   Br  :   -0.000117793   -0.000128826    0.000119244
   6   H   :   -0.000238188   -0.000011870    0.000693217
   7   H   :   -0.000036721   -0.000106116    0.000080082
   8   H   :   -0.000081511   -0.000046399    0.000148813
   9   H   :   -0.000239289   -0.000146156    0.000054381
  10   H   :   -0.000078356   -0.000133080    0.000247570
  11   H   :   -0.000066320   -0.000153316    0.000112935
  12   H   :    0.000346507   -0.000411798    0.000118857
  13   H   :   -0.000164063   -0.000140845    0.000138490
  14   H   :   -0.000173792   -0.000109938    0.000110647
  15   Br  :   -0.000776933   -0.001239626   -0.001620318

Difference to translation invariance:
           :   -0.0016270738   -0.0023970817    0.0019680609

Norm of the cartesian gradient     ...    0.0027320604
RMS gradient                       ...    0.0004072715
MAX gradient                       ...    0.0016203184

-------
TIMINGS
-------

Total SCF gradient time            ...        3.167 sec

One electron gradient       ....       0.032 sec  (  1.0%)
Prescreening matrices       ....       0.116 sec  (  3.7%)
RI-J Coulomb gradient       ....       0.302 sec  (  9.5%)
COSX gradient               ....       1.152 sec  ( 36.4%)
XC gradient                 ....       0.732 sec  ( 23.1%)
CPCM gradient               ....       0.503 sec  ( 15.9%)
   A-Matrix (El+Nuc)        ....       0.040 sec  (  1.3%)
   Potential                ....       0.463 sec  ( 14.6%)
------------------------------------------------------------------------------
                         ORCA GEOMETRY RELAXATION STEP
------------------------------------------------------------------------------

Reading the OPT-File                    .... done
Getting information on internals        .... done
Copying old internal coords+grads       .... done
Making the new internal coordinates     .... (new redundants).... done
Validating the new internal coordinates .... (new redundants).... done
Calculating the B-matrix                .... done
Calculating the G,G- and P matrices     .... done
Transforming gradient to internals      .... done
Projecting the internal gradient        .... done
Number of atoms                         ....  15
Number of internal coordinates          ....  77
Current Energy                          .... -5304.821659091 Eh
Current gradient norm                   ....     0.002732060 Eh/bohr
Maximum allowed component of the step   ....  0.300
Current trust radius                    ....  0.300
Evaluating the initial hessian          ....  (Almloef) done
Projecting the Hessian                  .... done
Forming the augmented Hessian           .... done
Diagonalizing the augmented Hessian     .... done
Last element of RFO vector              ....  0.905037436
Lowest eigenvalues of augmented Hessian:
 -0.000791034  0.003436916  0.012184108  0.013955666  0.016461111
Length of the computed step             ....  0.469960579
Warning: the length of the step is outside the trust region - taking restricted step instead
The input lambda is                     ....    -0.000791
   iter:   1  x=   -0.001824  g=  126.687067 f(x)=     0.130863
   iter:   2  x=   -0.002540  g=   58.019072 f(x)=     0.041559
   iter:   3  x=   -0.002759  g=   37.289406 f(x)=     0.008152
   iter:   4  x=   -0.002774  g=   32.979466 f(x)=     0.000484
   iter:   5  x=   -0.002774  g=   32.714510 f(x)=     0.000002
   iter:   6  x=   -0.002774  g=   32.713441 f(x)=     0.000000
   iter:   7  x=   -0.002774  g=   32.713441 f(x)=     0.000000
The output lambda is                    ....    -0.002774 (7 iterations)
The final length of the internal step   ....  0.300000000
Converting the step to cartesian space:
 Initial RMS(Int)=    0.0341881729
Transforming coordinates:
 Iter   0:  RMS(Cart)=    0.0312950190 RMS(Int)=    0.0322585786
 Iter   1:  RMS(Cart)=    0.0035713317 RMS(Int)=    0.0026369617
 Iter   2:  RMS(Cart)=    0.0000601902 RMS(Int)=    0.0000428693
 Iter   3:  RMS(Cart)=    0.0000011302 RMS(Int)=    0.0000011981
 Iter   4:  RMS(Cart)=    0.0000000224 RMS(Int)=    0.0000000309
done
Storing new coordinates                 .... done

                                .--------------------.
          ----------------------|Geometry convergence|-------------------------
          Item                value                   Tolerance       Converged
          ---------------------------------------------------------------------
          RMS gradient        0.0002479860            0.0001000000      NO
          MAX gradient        0.0015270685            0.0003000000      NO
          RMS step            0.0341881729            0.0020000000      NO
          MAX step            0.2239809758            0.0040000000      NO
          ........................................................
          Max(Bonds)      0.1185      Max(Angles)    1.42
          Max(Dihed)        0.73      Max(Improp)    0.00
          ---------------------------------------------------------------------

The optimization has not yet converged - more geometry cycles are needed


    ---------------------------------------------------------------------------
                         Redundant Internal Coordinates
                            (Angstroem and degrees)

        Definition                    Value    dE/dq     Step     New-Value
    ----------------------------------------------------------------------------
     1. B(C   1,C   0)                1.5227  0.000051  0.0004    1.5231   
     2. B(C   2,C   1)                1.5249  0.000109  0.0006    1.5255   
     3. B(C   3,C   1)                1.5172  0.000083 -0.0001    1.5171   
     4. B(Br  4,C   3)                1.9685  0.000003 -0.0000    1.9685   
     5. B(H   5,C   0)                1.1019 -0.000955  0.0011    1.1029   
     6. B(H   6,C   0)                1.1026 -0.000085  0.0001    1.1028   
     7. B(H   7,C   0)                1.1012 -0.000054  0.0001    1.1013   
     8. B(H   8,C   1)                1.1080 -0.000027  0.0000    1.1080   
     9. B(H   9,C   2)                1.1015 -0.000005  0.0000    1.1015   
    10. B(H  10,C   2)                1.1023 -0.000050  0.0001    1.1024   
    11. B(H  11,C   2)                1.1010 -0.000641  0.0013    1.1024   
    12. B(H  12,C   3)                1.0977 -0.000015  0.0000    1.0977   
    13. B(H  13,C   3)                1.0972  0.000004 -0.0000    1.0972   
    14. B(Br 14,H  11)                3.0940 -0.000743  0.1020    3.1960   
    15. B(Br 14,H   5)                2.8104 -0.001527  0.1185    2.9290   
    16. A(C   1,C   0,H   6)          110.56 -0.000003   -0.01    110.55   
    17. A(C   1,C   0,H   5)          109.93  0.000179    0.04    109.98   
    18. A(C   1,C   0,H   7)          111.59  0.000000   -0.04    111.55   
    19. A(H   5,C   0,H   6)          107.75 -0.000121    0.08    107.83   
    20. A(H   5,C   0,H   7)          109.00 -0.000102   -0.05    108.95   
    21. A(H   6,C   0,H   7)          107.90  0.000037   -0.02    107.88   
    22. A(C   0,C   1,C   2)          111.80 -0.000000    0.22    112.02   
    23. A(C   3,C   1,H   8)          102.57  0.000041   -0.06    102.51   
    24. A(C   0,C   1,H   8)          107.60  0.000062   -0.01    107.59   
    25. A(C   2,C   1,H   8)          107.61 -0.000069    0.03    107.65   
    26. A(C   0,C   1,C   3)          113.38 -0.000187   -0.06    113.33   
    27. A(C   2,C   1,C   3)          113.14  0.000157   -0.15    113.00   
    28. A(C   1,C   2,H  10)          110.83  0.000008   -0.04    110.79   
    29. A(C   1,C   2,H   9)          111.56  0.000011   -0.10    111.46   
    30. A(H   9,C   2,H  11)          108.90  0.000115   -0.15    108.75   
    31. A(C   1,C   2,H  11)          109.89 -0.000049    0.31    110.19   
    32. A(H   9,C   2,H  10)          107.89 -0.000001   -0.04    107.85   
    33. A(H  10,C   2,H  11)          107.67 -0.000084    0.01    107.68   
    34. A(H  12,C   3,H  13)          109.49 -0.000034   -0.00    109.49   
    35. A(Br  4,C   3,H  13)          104.46 -0.000003    0.01    104.47   
    36. A(C   1,C   3,H  13)          111.89 -0.000007    0.00    111.90   
    37. A(Br  4,C   3,H  12)          104.56  0.000004   -0.01    104.55   
    38. A(C   1,C   3,H  12)          111.94  0.000115   -0.03    111.91   
    39. A(C   1,C   3,Br  4)          113.99 -0.000083    0.02    114.00   
    40. A(C   0,H   5,Br 14)          161.34 -0.000019   -0.04    161.30   
    41. A(C   2,H  11,Br 14)          149.78 -0.000222    0.43    150.21   
    42. A(H   5,Br 14,H  11)           49.67  0.000212   -1.42     48.24   
    43. D(C   3,C   1,C   0,H   7)     53.69  0.000035   -0.57     53.12   
    44. D(H   8,C   1,C   0,H   6)   -179.10 -0.000000   -0.41   -179.51   
    45. D(C   2,C   1,C   0,H   6)     62.95  0.000045   -0.57     62.38   
    46. D(H   8,C   1,C   0,H   5)     62.06  0.000039   -0.52     61.53   
    47. D(C   2,C   1,C   0,H   5)    -55.89  0.000085   -0.69    -56.58   
    48. D(C   3,C   1,C   0,H   6)    -66.41 -0.000011   -0.51    -66.92   
    49. D(H   8,C   1,C   0,H   7)    -59.01  0.000045   -0.46    -59.47   
    50. D(C   3,C   1,C   0,H   5)    174.75  0.000028   -0.63    174.13   
    51. D(C   2,C   1,C   0,H   7)   -176.96  0.000091   -0.63   -177.59   
    52. D(H  10,C   2,C   1,C   3)     66.44 -0.000131    0.52     66.96   
    53. D(H   9,C   2,C   1,H   8)     58.78 -0.000052    0.54     59.32   
    54. D(H   9,C   2,C   1,C   3)    -53.80 -0.000143    0.66    -53.14   
    55. D(H   9,C   2,C   1,C   0)    176.72 -0.000019    0.68    177.40   
    56. D(H  10,C   2,C   1,H   8)    179.02 -0.000040    0.40    179.42   
    57. D(H  11,C   2,C   1,H   8)    -62.10 -0.000171    0.58    -61.52   
[...]
 103   0.0000       0.963971        26.2310 
 104   0.0000       1.030856        28.0510 
 105   0.0000       1.076316        29.2880 
 106   0.0000       1.099239        29.9118 
 107   0.0000       1.118937        30.4478 
 108   0.0000       1.180426        32.1210 
 109   0.0000       1.193158        32.4675 
 110   0.0000       1.281227        34.8640 
 111   0.0000       1.352128        36.7933 
 112   0.0000       1.447788        39.3963 
 113   0.0000       1.558022        42.3959 
 114   0.0000       1.563895        42.5557 
 115   0.0000       1.584325        43.1117 
 116   0.0000       1.593853        43.3710 
 117   0.0000       1.671235        45.4766 
 118   0.0000       1.745171        47.4885 
 119   0.0000       1.770103        48.1669 
 120   0.0000       1.777621        48.3715 
 121   0.0000       1.807400        49.1819 
 122   0.0000       1.820691        49.5435 
 123   0.0000       1.827735        49.7352 
 124   0.0000       1.855248        50.4839 
 125   0.0000       1.863329        50.7037 
 126   0.0000       1.876767        51.0694 
 127   0.0000       1.887855        51.3711 
 128   0.0000       1.938123        52.7390 
 129   0.0000       1.955674        53.2166 
 130   0.0000       1.976268        53.7770 
 131   0.0000       1.986478        54.0548 
 132   0.0000       2.062597        56.1261 
 133   0.0000       2.086932        56.7883 
 134   0.0000       2.142567        58.3022 
 135   0.0000       2.281230        62.0754 
 136   0.0000       2.284517        62.1649 
 137   0.0000       2.302713        62.6600 
 138   0.0000       2.367099        64.4120 
 139   0.0000       2.410902        65.6040 
 140   0.0000       2.441525        66.4373 
 141   0.0000       2.489197        67.7345 
 142   0.0000       2.590285        70.4852 
 143   0.0000       2.601501        70.7904 
 144   0.0000       2.649336        72.0921 
 145   0.0000       2.670748        72.6747 
 146   0.0000       2.750843        74.8543 
 147   0.0000       2.878005        78.3145 
 148   0.0000       2.896398        78.8150 
 149   0.0000       2.927523        79.6620 
 150   0.0000       2.957363        80.4739 
 151   0.0000       2.966146        80.7129 
 152   0.0000       3.055700        83.1498 
 153   0.0000       3.084763        83.9407 
 154   0.0000       3.095335        84.2283 
 155   0.0000       3.491965        95.0212 
 156   0.0000       3.499127        95.2161 
 157   0.0000       3.561925        96.9249 
 158   0.0000       3.562059        96.9285 
 159   0.0000       3.562096        96.9296 
 160   0.0000       3.576572        97.3235 
 161   0.0000       3.592078        97.7454 
 162   0.0000       3.594460        97.8102 
 163   0.0000       3.598934        97.9320 
 164   0.0000       3.820766       103.9683 

                    ********************************
                    * MULLIKEN POPULATION ANALYSIS *
                    ********************************

-----------------------
MULLIKEN ATOMIC CHARGES
-----------------------
   0 C :   -0.038235
   1 C :   -0.195235
   2 C :   -0.047493
   3 C :   -0.068406
   4 Br:   -0.207713
   5 H :    0.021485
   6 H :    0.037027
   7 H :    0.042318
   8 H :    0.063682
   9 H :    0.046635
  10 H :    0.037715
  11 H :    0.028335
  12 H :    0.106370
  13 H :    0.105914
  14 Br:   -0.932400
Sum of atomic charges:   -1.0000000

--------------------------------
MULLIKEN REDUCED ORBITAL CHARGES
--------------------------------
  0 C s       :     3.027351  s :     3.027351
      pz      :     1.014081  p :     2.983977
      px      :     0.971617
      py      :     0.998280
      dz2     :     0.002981  d :     0.026906
      dxz     :     0.007831
      dyz     :     0.005401
      dx2y2   :     0.004513
      dxy     :     0.006181
  1 C s       :     3.134771  s :     3.134771
      pz      :     0.974635  p :     3.014561
      px      :     1.014928
      py      :     1.024998
      dz2     :     0.009144  d :     0.045903
      dxz     :     0.011934
      dyz     :     0.008619
      dx2y2   :     0.006676
      dxy     :     0.009530
  2 C s       :     3.036124  s :     3.036124
      pz      :     0.990914  p :     2.984392
      px      :     0.980520
      py      :     1.012959
      dz2     :     0.003935  d :     0.026976
      dxz     :     0.007288
      dyz     :     0.005696
      dx2y2   :     0.002287
      dxy     :     0.007769
  3 C s       :     3.138559  s :     3.138559
      pz      :     1.047085  p :     2.894013
      px      :     1.007342
      py      :     0.839587
      dz2     :     0.006607  d :     0.035833
      dxz     :     0.009377
      dyz     :     0.005931
      dx2y2   :     0.004964
      dxy     :     0.008954
  4 Brs       :     7.972318  s :     7.972318
      pz      :     5.961417  p :    17.193061
      px      :     5.828727
      py      :     5.402917
      dz2     :     2.006260  d :    10.042335
      dxz     :     2.002552
      dyz     :     2.006214
      dx2y2   :     2.012165
      dxy     :     2.015145
  5 H s       :     0.953705  s :     0.953705
      pz      :     0.011565  p :     0.024810
      px      :     0.006409
      py      :     0.006836
  6 H s       :     0.938911  s :     0.938911
      pz      :     0.005981  p :     0.024062
      px      :     0.006227
      py      :     0.011854
  7 H s       :     0.934070  s :     0.934070
      pz      :     0.009018  p :     0.023611
      px      :     0.009341
      py      :     0.005252
  8 H s       :     0.914352  s :     0.914352
      pz      :     0.004534  p :     0.021966
      px      :     0.005986
      py      :     0.011446
  9 H s       :     0.929739  s :     0.929739
      pz      :     0.005900  p :     0.023626
      px      :     0.009068
      py      :     0.008657
 10 H s       :     0.938202  s :     0.938202
      pz      :     0.005726  p :     0.024082
      px      :     0.006730
      py      :     0.011627
 11 H s       :     0.947600  s :     0.947600
      pz      :     0.010754  p :     0.024065
      px      :     0.006247
      py      :     0.007064
 12 H s       :     0.870948  s :     0.870948
      pz      :     0.005387  p :     0.022683
      px      :     0.009648
      py      :     0.007648
 13 H s       :     0.871375  s :     0.871375
      pz      :     0.009150  p :     0.022711
      px      :     0.009983
      py      :     0.003578
 14 Brs       :     7.997849  s :     7.997849
      pz      :     5.964825  p :    17.934352
      px      :     5.981937
      py      :     5.987590
      dz2     :     2.000043  d :    10.000199
      dxz     :     2.000045
      dyz     :     2.000086
      dx2y2   :     2.000020
      dxy     :     2.000004


                     *******************************
                     * LOEWDIN POPULATION ANALYSIS *
                     *******************************

----------------------
LOEWDIN ATOMIC CHARGES
----------------------
   0 C :   -0.073126
   1 C :   -0.069604
   2 C :   -0.070934
   3 C :   -0.070711
   4 Br:   -0.034803
   5 H :    0.014022
   6 H :    0.021866
   7 H :    0.029132
   8 H :    0.047011
   9 H :    0.029995
  10 H :    0.023767
  11 H :    0.020268
  12 H :    0.039954
  13 H :    0.039881
  14 Br:   -0.946718

-------------------------------
LOEWDIN REDUCED ORBITAL CHARGES
-------------------------------
  0 C s       :     2.845688  s :     2.845688
      pz      :     1.064198  p :     3.157153
      px      :     1.039778
      py      :     1.053177
      dz2     :     0.007541  d :     0.070285
      dxz     :     0.021127
      dyz     :     0.013945
      dx2y2   :     0.010452
      dxy     :     0.017219
  1 C s       :     2.844698  s :     2.844698
      pz      :     1.024752  p :     3.116373
      px      :     1.041435
      py      :     1.050186
      dz2     :     0.020659  d :     0.108534
      dxz     :     0.030232
      dyz     :     0.020437
      dx2y2   :     0.013784
      dxy     :     0.023422
  2 C s       :     2.846136  s :     2.846136
      pz      :     1.047318  p :     3.154586
      px      :     1.040130
      py      :     1.067138
      dz2     :     0.009704  d :     0.070212
      dxz     :     0.020162
      dyz     :     0.014624
      dx2y2   :     0.005754
      dxy     :     0.019967
  3 C s       :     2.915889  s :     2.915889
      pz      :     1.081747  p :     3.070472
      px      :     1.058596
      py      :     0.930130
      dz2     :     0.015596  d :     0.084349
      dxz     :     0.023424
      dyz     :     0.013536
      dx2y2   :     0.010971
      dxy     :     0.020821
  4 Brs       :     7.828280  s :     7.828280
      pz      :     5.941095  p :    17.153410
      px      :     5.812783
      py      :     5.399533
      dz2     :     2.008629  d :    10.053113
      dxz     :     2.002911
      dyz     :     2.007651
      dx2y2   :     2.014502
      dxy     :     2.019421
  5 H s       :     0.916016  s :     0.916016
      pz      :     0.032648  p :     0.069961
      px      :     0.018092
      py      :     0.019222
  6 H s       :     0.910676  s :     0.910676
      pz      :     0.016066  p :     0.067458
      px      :     0.017696
      py      :     0.033696
  7 H s       :     0.904601  s :     0.904601
      pz      :     0.024960  p :     0.066267
      px      :     0.026952
      py      :     0.014354
  8 H s       :     0.885615  s :     0.885615
      pz      :     0.014888  p :     0.067374
      px      :     0.019081
      py      :     0.033405
  9 H s       :     0.903832  s :     0.903832
      pz      :     0.016700  p :     0.066173
      px      :     0.026159
      py      :     0.023313
 10 H s       :     0.909060  s :     0.909060
      pz      :     0.016247  p :     0.067173
      px      :     0.018908
      py      :     0.032018
 11 H s       :     0.911797  s :     0.911797
      pz      :     0.031631  p :     0.067936
      px      :     0.017806
      py      :     0.018498
 12 H s       :     0.888931  s :     0.888931
      pz      :     0.017929  p :     0.071115
      px      :     0.028354
      py      :     0.024833
 13 H s       :     0.888924  s :     0.888924
      pz      :     0.029317  p :     0.071195
      px      :     0.030042
      py      :     0.011837
 14 Brs       :     7.997936  s :     7.997936
      pz      :     5.971487  p :    17.948535
      px      :     5.986706
      py      :     5.990342
      dz2     :     2.000053  d :    10.000248
      dxz     :     2.000059
      dyz     :     2.000106
      dx2y2   :     2.000025
      dxy     :     2.000004


                      *****************************
                      * MAYER POPULATION ANALYSIS *
                      *****************************

  NA   - Mulliken gross atomic population
  ZA   - Total nuclear charge
  QA   - Mulliken gross atomic charge
  VA   - Mayer's total valence
  BVA  - Mayer's bonded valence
  FA   - Mayer's free valence

  ATOM       NA         ZA         QA         VA         BVA        FA
  0 C      6.0382     6.0000    -0.0382     3.8985     3.8985    -0.0000
  1 C      6.1952     6.0000    -0.1952     4.1270     4.1270     0.0000
  2 C      6.0475     6.0000    -0.0475     3.9152     3.9152    -0.0000
  3 C      6.0684     6.0000    -0.0684     3.8839     3.8839    -0.0000
  4 Br    35.2077    35.0000    -0.2077     1.0387     1.0387    -0.0000
  5 H      0.9785     1.0000     0.0215     1.0562     1.0562    -0.0000
  6 H      0.9630     1.0000     0.0370     1.0047     1.0047     0.0000
  7 H      0.9577     1.0000     0.0423     0.9867     0.9867     0.0000
  8 H      0.9363     1.0000     0.0637     0.9636     0.9636     0.0000
  9 H      0.9534     1.0000     0.0466     0.9858     0.9858     0.0000
 10 H      0.9623     1.0000     0.0377     1.0039     1.0039    -0.0000
 11 H      0.9717     1.0000     0.0283     1.0338     1.0338    -0.0000
 12 H      0.8936     1.0000     0.1064     0.9692     0.9692    -0.0000
 13 H      0.8941     1.0000     0.1059     0.9689     0.9689    -0.0000
 14 Br    35.9324    35.0000    -0.9324     0.1362     0.1362    -0.0000

  Mayer bond orders larger than 0.100000
B(  0-C ,  1-C ) :   1.0561 B(  0-C ,  5-H ) :   0.9520 B(  0-C ,  6-H ) :   0.9613 
B(  0-C ,  7-H ) :   0.9667 B(  1-C ,  2-C ) :   1.0573 B(  1-C ,  3-C ) :   1.0445 
B(  1-C ,  8-H ) :   0.9096 B(  2-C ,  9-H ) :   0.9685 B(  2-C , 10-H ) :   0.9640 
B(  2-C , 11-H ) :   0.9585 B(  3-C ,  4-Br) :   0.9665 B(  3-C , 12-H ) :   0.9478 
B(  3-C , 13-H ) :   0.9465 


------------------
HIRSHFELD ANALYSIS
------------------

Total integrated alpha density =     52.000993431
Total integrated beta density  =     52.000993431

  ATOM     CHARGE      SPIN    
   0 C   -0.084744    0.000000
   1 C   -0.002244    0.000000
   2 C   -0.081864    0.000000
   3 C    0.010550    0.000000
   4 Br  -0.148919    0.000000
   5 H    0.004229    0.000000
   6 H    0.015652    0.000000
   7 H    0.026216    0.000000
   8 H    0.037671    0.000000
   9 H    0.026528    0.000000
  10 H    0.017825    0.000000
  11 H    0.012437    0.000000
  12 H    0.045591    0.000000
  13 H    0.045527    0.000000
  14 Br  -0.926442    0.000000

  TOTAL  -1.001987    0.000000

-------
TIMINGS
-------

Total SCF time: 0 days 0 hours 0 min 7 sec 

Total time                  ....       7.635 sec
Sum of individual times     ....       7.308 sec  ( 95.7%)

Fock matrix formation       ....       6.472 sec  ( 84.8%)
  Split-RI-J                ....       0.814 sec  ( 12.6% of F)
  Chain of spheres X        ....       3.850 sec  ( 59.5% of F)
  COS-X 1 center corr.      ....       0.000 sec  (  0.0% of F)
  XC integration            ....       0.388 sec  (  6.0% of F)
    Basis function eval.    ....       0.157 sec  ( 40.5% of XC)
    Density eval.           ....       0.073 sec  ( 18.8% of XC)
    XC-Functional eval.     ....       0.033 sec  (  8.5% of XC)
    XC-Potential eval.      ....       0.099 sec  ( 25.6% of XC)
Diagonalization             ....       0.004 sec  (  0.1%)
Density matrix formation    ....       0.002 sec  (  0.0%)
Population analysis         ....       0.067 sec  (  0.9%)
Initial guess               ....       0.012 sec  (  0.2%)
Orbital Transformation      ....       0.000 sec  (  0.0%)
Orbital Orthonormalization  ....       0.008 sec  (  0.1%)
DIIS solution               ....       0.001 sec  (  0.0%)
SOSCF solution              ....       0.008 sec  (  0.1%)
Grid generation             ....       0.743 sec  (  9.7%)


-------------------------------------------------------------------------------
                          DFT DISPERSION CORRECTION                            
                                                                               
                              DFTD3 V3.1  Rev 1                                
                          USING Becke-Johnson damping                          
-------------------------------------------------------------------------------
The PBE0 functional is recognized
Active option DFTDOPT                   ...         4   

molecular C6(AA) [au] = 3451.692975 


            DFT-D V3
 parameters
 s6 scaling factor         :     1.0000 
 a1 scaling factor         :     0.4145 
 s8 scaling factor         :     1.2177 
 a2 scaling factor         :     4.8593 
 ad hoc parameters k1-k3   :    16.0000     1.3333    -4.0000 

 Edisp/kcal,au: -7.488489534955  -0.011933666416 
 E6   /kcal   :  -4.613660501 
 E8   /kcal   :  -2.874829034 
 % E8         :  38.389971983 

-------------------------   ----------------
Dispersion correction           -0.011933666
-------------------------   ----------------


-------------------------   --------------------
FINAL SINGLE POINT ENERGY     -5304.822060615297
-------------------------   --------------------

                                *** OPTIMIZATION RUN DONE ***

                            ***************************************
                            *     ORCA property calculations      *
                            ***************************************

                                    ---------------------
                                    Active property flags
                                    ---------------------
   (+) Dipole Moment


------------------------------------------------------------------------------
                       ORCA ELECTRIC PROPERTIES CALCULATION
------------------------------------------------------------------------------

Dipole Moment Calculation                       ... on
Quadrupole Moment Calculation                   ... off
Polarizability Calculation                      ... off
GBWName                                         ... manual_reactants_330.gbw
Electron density file                           ... manual_reactants_330.scfp
The origin for moment calculation is the CENTER OF MASS  = ( 0.939330,  0.882117  1.460992)

-------------
DIPOLE MOMENT
-------------
                                X             Y             Z
Electronic contribution:      0.96511      -5.54390       8.73479
Nuclear contribution   :     -3.69209       3.46654     -14.02604
                        -----------------------------------------
Total Dipole Moment    :     -2.72698      -2.07736      -5.29124
                        -----------------------------------------
Magnitude (a.u.)       :      6.30469
Magnitude (Debye)      :     16.02525



--------------------
Rotational spectrum 
--------------------
 
Rotational constants in cm-1:     0.147561     0.007723     0.007677 
Rotational constants in MHz :  4423.754054   231.528430   230.138064 

 Dipole components along the rotational axes: 
x,y,z [a.u.] :    -6.213942     0.822298    -0.678140 
x,y,z [Debye]:   -15.794584     2.090116    -1.723695 

 
[1631282633.377316] [comp0805:36101:0]            sys.c:618  UCX  ERROR shmget(size=2097152 flags=0xfb0) for mm_recv_desc failed: Operation not permitted, please check shared memory limits by 'ipcs -l'
[1631282633.379775] [comp0805:36098:0]            sys.c:618  UCX  ERROR shmget(size=2097152 flags=0xfb0) for mm_recv_desc failed: Operation not permitted, please check shared memory limits by 'ipcs -l'
[1631282633.380563] [comp0805:36099:0]            sys.c:618  UCX  ERROR shmget(size=2097152 flags=0xfb0) for mm_recv_desc failed: Operation not permitted, please check shared memory limits by 'ipcs -l'
[1631282633.381250] [comp0805:36100:0]            sys.c:618  UCX  ERROR shmget(size=2097152 flags=0xfb0) for mm_recv_desc failed: Operation not permitted, please check shared memory limits by 'ipcs -l'
[1631282633.389774] [comp0805:36101:0]            sys.c:618  UCX  ERROR shmget(size=2097152 flags=0xb80) for ucp_am_bufs failed: Operation not permitted, please check shared memory limits by 'ipcs -l'
[1631282633.390243] [comp0805:36098:0]            sys.c:618  UCX  ERROR shmget(size=2097152 flags=0xb80) for ucp_am_bufs failed: Operation not permitted, please check shared memory limits by 'ipcs -l'
[1631282633.392184] [comp0805:36100:0]            sys.c:618  UCX  ERROR shmget(size=2097152 flags=0xb80) for ucp_am_bufs failed: Operation not permitted, please check shared memory limits by 'ipcs -l'
[1631282633.395074] [comp0805:36099:0]            sys.c:618  UCX  ERROR shmget(size=2097152 flags=0xb80) for ucp_am_bufs failed: Operation not permitted, please check shared memory limits by 'ipcs -l'

Timings for individual modules:

Sum of individual times         ...      127.747 sec (=   2.129 min)
GTO integral calculation        ...        9.952 sec (=   0.166 min)   7.8 %
SCF iterations                  ...       86.823 sec (=   1.447 min)  68.0 %
SCF Gradient evaluation         ...       28.887 sec (=   0.481 min)  22.6 %
Geometry relaxation             ...        2.085 sec (=   0.035 min)   1.6 %
                             ****ORCA TERMINATED NORMALLY****
TOTAL RUN TIME: 0 days 0 hours 2 minutes 10 seconds 149 msec
