
                                 *****************
                                 * O   R   C   A *
                                 *****************

           --- An Ab Initio, DFT and Semiempirical electronic structure package ---

                  #######################################################
                  #                        -***-                        #
                  #          Department of theory and spectroscopy      #
                  #               Directorship: Frank Neese             #
                  #        Max Planck Institute fuer Kohlenforschung    #
                  #                Kaiser Wilhelm Platz 1               #
                  #                 D-45470 Muelheim/Ruhr               #
                  #                      Germany                        #
                  #                                                     #
                  #                  All rights reserved                #
                  #                        -***-                        #
                  #######################################################


                         Program Version 4.2.1 -  RELEASE  -


 With contributions from (in alphabetic order):
   Daniel Aravena         : Magnetic Suceptibility
   Michael Atanasov       : Ab Initio Ligand Field Theory (pilot matlab implementation)
   Alexander A. Auer      : GIAO ZORA, VPT2
   Ute Becker             : Parallelization
   Giovanni Bistoni       : ED, misc. LED, open-shell LED, HFLD
   Martin Brehm           : Molecular dynamics
   Dmytro Bykov           : SCF Hessian
   Vijay G. Chilkuri      : MRCI spin determinant printing, contributions to CSF-ICE
   Dipayan Datta          : RHF DLPNO-CCSD density
   Achintya Kumar Dutta   : EOM-CC, STEOM-CC
   Dmitry Ganyushin       : Spin-Orbit,Spin-Spin,Magnetic field MRCI
   Miquel Garcia          : C-PCM Hessian, Gaussian charge scheme
   Yang Guo               : DLPNO-NEVPT2, CIM, IAO-localization
   Andreas Hansen         : Spin unrestricted coupled pair/coupled cluster methods
   Benjamin Helmich-Paris : CASSCF linear response (MC-RPA)
   Lee Huntington         : MR-EOM, pCC
   Robert Izsak           : Overlap fitted RIJCOSX, COSX-SCS-MP3, EOM
   Christian Kollmar      : KDIIS, OOCD, Brueckner-CCSD(T), CCSD density
   Simone Kossmann        : Meta GGA functionals, TD-DFT gradient, OOMP2, MP2 Hessian
   Martin Krupicka        : AUTO-CI
   Lucas Lang             : DCDCAS
   Dagmar Lenk            : GEPOL surface, SMD
   Dimitrios Liakos       : Extrapolation schemes; Compound Job, initial MDCI parallelization
   Dimitrios Manganas     : Further ROCIS development; embedding schemes
   Dimitrios Pantazis     : SARC Basis sets
   Taras Petrenko         : DFT Hessian,TD-DFT gradient, ASA, ECA, R-Raman, ABS, FL, XAS/XES, NRVS
   Peter Pinski           : DLPNO-MP2, DLPNO-MP2 Gradient
   Christoph Reimann      : Effective Core Potentials
   Marius Retegan         : Local ZFS, SOC
   Christoph Riplinger    : Optimizer, TS searches, QM/MM, DLPNO-CCSD(T), (RO)-DLPNO pert. Triples
   Tobias Risthaus        : Range-separated hybrids, TD-DFT gradient, RPA, STAB
   Michael Roemelt        : Original ROCIS implementation
   Masaaki Saitow         : Open-shell DLPNO-CCSD energy and density
   Barbara Sandhoefer     : DKH picture change effects
   Avijit Sen             : IP-ROCIS
   Kantharuban Sivalingam : CASSCF convergence, NEVPT2, FIC-MRCI
   Bernardo de Souza      : ESD, SOC TD-DFT
   Georgi Stoychev        : AutoAux, RI-MP2 NMR
   Willem Van den Heuvel  : Paramagnetic NMR
   Boris Wezisla          : Elementary symmetry handling
   Frank Wennmohs         : Technical directorship


 We gratefully acknowledge several colleagues who have allowed us to
 interface, adapt or use parts of their codes:
   Stefan Grimme, W. Hujo, H. Kruse,             : VdW corrections, initial TS optimization,
                  C. Bannwarth                     DFT functionals, gCP, sTDA/sTD-DF
   Ed Valeev, F. Pavosevic, A. Kumar             : LibInt (2-el integral package), F12 methods
   Garnet Chan, S. Sharma, J. Yang, R. Olivares  : DMRG
   Ulf Ekstrom                                   : XCFun DFT Library
   Mihaly Kallay                                 : mrcc  (arbitrary order and MRCC methods)
   Andreas Klamt, Michael Diedenhofen            : otool_cosmo (COSMO solvation model)
   Jiri Pittner, Ondrej Demel                    : Mk-CCSD
   Frank Weinhold                                : gennbo (NPA and NBO analysis)
   Christopher J. Cramer and Donald G. Truhlar   : smd solvation model
   Lars Goerigk                                  : TD-DFT with DH, B97 family of functionals
   V. Asgeirsson, H. Jonsson                     : NEB implementation
   FAccTs GmbH                                   : IRC, NEB, NEB-TS, Multilevel, MM, QM/MM, CI optimization
   S Lehtola, MJT Oliveira, MAL Marques          : LibXC Library


 Your calculation uses the libint2 library for the computation of 2-el integrals
 For citations please refer to: http://libint.valeyev.net

 Your ORCA version has been built with support for libXC version: 4.2.3
 For citations please refer to: https://tddft.org/programs/libxc/

 This ORCA versions uses:
   CBLAS   interface :  Fast vector & matrix operations
   LAPACKE interface :  Fast linear algebra routines
   SCALAPACK package :  Parallel linear algebra routines


Your calculation utilizes the atom-pairwise dispersion correction
with the Becke-Johnson damping scheme (D3BJ)
Cite in your paper:
S.Grimme, S.Ehrlich, L.Goerigk, J Comput Chem, (2011), 32, 1456–1465 
S.Grimme, J.Antony, S.Ehrlich and H.Krieg, J.Chem.Phys., 132, (2010), 154104 
   

----- Orbital basis set information -----
Your calculation utilizes the basis: def2-SVP
   F. Weigend and R. Ahlrichs, Phys. Chem. Chem. Phys. 7, 3297 (2005).

----- AuxJ basis set information -----
Your calculation utilizes the auxiliary basis: def2/J
   F. Weigend, Phys. Chem. Chem. Phys. 8, 1057 (2006).

================================================================================
                                        WARNINGS
                       Please study these warnings very carefully!
================================================================================


WARNING: Geometry Optimization
  ===> : Switching off AutoStart
         For restart on a previous wavefunction, please use MOREAD

INFO   : the flag for use of LIBINT has been found!

================================================================================
                                       INPUT FILE
================================================================================
NAME = manual_reactants_328.inp
|  1> ! Opt PBE0 RIJCOSX D3BJ def2-SVP def2/J CPCM(Acetone)
|  2> %cpcm
|  3> surfacetype vdw_gaussian
|  4> end
|  5> %geom MaxIter 100 end
|  6> %output 
|  7> xyzfile=True 
|  8> end 
|  9> %scf 
| 10> maxiter 250 
| 11> end
| 12> %output
| 13> Print[P_Hirshfeld] = 1
| 14> end
| 15> % maxcore
| 16> 4000
| 17> %pal nprocs 4
| 18> end
| 19> *xyz -1 1
| 20> C    -1.72057  -0.43040  -0.56569
| 21> C    -0.23482  -0.65126  -0.49509
| 22> Br    0.76266   0.95487  -1.04459
| 23> H    -2.21719  -1.35068  -0.21866
| 24> H    -2.03125   0.37447   0.11546
| 25> H    -2.06707  -0.19330  -1.58244
| 26> H     0.11566  -1.43947  -1.17238
| 27> H     0.06722  -0.87473   0.53971
| 28> Br   -0.88208  -1.68661   2.77957
| 29> *
| 30> 
| 31>                          ****END OF INPUT****
================================================================================

                       *****************************
                       * Geometry Optimization Run *
                       *****************************

Geometry optimization settings:
Update method            Update   .... BFGS
Choice of coordinates    CoordSys .... Z-matrix Internals
Initial Hessian          InHess   .... Almoef's Model

Convergence Tolerances:
Energy Change            TolE     ....  5.0000e-06 Eh
Max. Gradient            TolMAXG  ....  3.0000e-04 Eh/bohr
RMS Gradient             TolRMSG  ....  1.0000e-04 Eh/bohr
Max. Displacement        TolMAXD  ....  4.0000e-03 bohr
RMS Displacement         TolRMSD  ....  2.0000e-03 bohr
Strict Convergence                ....  False
------------------------------------------------------------------------------
                        ORCA OPTIMIZATION COORDINATE SETUP
------------------------------------------------------------------------------

The optimization will be done in new redundant internal coordinates
Making redundant internal coordinates   ...  (new redundants) done
Evaluating the initial hessian          ...  (Almloef) done
Evaluating the coordinates              ...  done
Calculating the B-matrix                .... done
Calculating the G-matrix                .... done
Diagonalizing the G-matrix              .... done
The first mode is                       ....   20
The number of degrees of freedom        ....   21

    -----------------------------------------------------------------
                    Redundant Internal Coordinates


    -----------------------------------------------------------------
         Definition                    Initial Value    Approx d2E/dq
    -----------------------------------------------------------------
      1. B(C   1,C   0)                  1.5037         0.411418   
      2. B(Br  2,C   1)                  1.9689         0.250399   
      3. B(H   3,C   0)                  1.1018         0.344816   
      4. B(H   4,C   0)                  1.0992         0.348097   
      5. B(H   5,C   0)                  1.1000         0.347077   
      6. B(H   6,C   1)                  1.0967         0.351297   
      7. B(H   7,C   1)                  1.1009         0.345967   
      8. B(Br  8,H   7)                  2.5646         0.005373   
      9. B(Br  8,H   3)                  3.2992         0.000362   
     10. A(C   1,C   0,H   5)          112.7231         0.327518   
     11. A(H   3,C   0,H   4)          106.7990         0.287340   
     12. A(H   3,C   0,H   5)          109.2186         0.287208   
     13. A(H   4,C   0,H   5)          109.0202         0.287634   
     14. A(C   1,C   0,H   4)          110.9593         0.327676   
     15. A(C   1,C   0,H   3)          107.9314         0.327165   
     16. A(C   0,C   1,Br  2)          111.5703         0.366896   
     17. A(H   6,C   1,H   7)          110.2985         0.287901   
     18. A(Br  2,C   1,H   7)          106.7937         0.320106   
     19. A(C   0,C   1,H   7)          110.1831         0.327345   
     20. A(Br  2,C   1,H   6)          104.5970         0.320907   
     21. A(C   0,C   1,H   6)          113.0981         0.328171   
     22. A(C   0,H   3,Br  8)          100.8872         0.135816   
     23. A(C   1,H   7,Br  8)          141.5947         0.175294   
     24. A(H   3,Br  8,H   7)           47.4576         0.109397   
     25. D(Br  2,C   1,C   0,H   5)     60.9727         0.013406   
     26. D(H   6,C   1,C   0,H   3)     64.0819         0.013406   
     27. D(Br  2,C   1,C   0,H   3)   -178.3229         0.013406   
     28. D(H   6,C   1,C   0,H   5)    -56.6225         0.013406   
     29. D(H   7,C   1,C   0,H   3)    -59.8769         0.013406   
     30. D(H   7,C   1,C   0,H   4)     56.8185         0.013406   
     31. D(Br  2,C   1,C   0,H   4)    -61.6276         0.013406   
     32. D(H   7,C   1,C   0,H   5)    179.4187         0.013406   
     33. D(H   6,C   1,C   0,H   4)   -179.2227         0.013406   
     34. D(Br  8,H   3,C   0,H   5)    179.3770         0.109331   
     35. D(Br  8,H   3,C   0,H   4)    -62.8634         0.109331   
     36. D(Br  8,H   3,C   0,C   1)     56.5048         0.109331   
     37. D(Br  8,H   7,C   1,H   6)   -105.7621         0.110217   
     38. D(Br  8,H   7,C   1,Br  2)    141.1399         0.110217   
     39. D(Br  8,H   7,C   1,C   0)     19.8021         0.110217   
     40. D(H   3,Br  8,H   7,C   1)      4.8521         0.001502   
     41. D(H   7,Br  8,H   3,C   0)    -36.8945         0.001500   
    -----------------------------------------------------------------

Number of atoms                         .... 9
Number of degrees of freedom            .... 41

         *************************************************************
         *                GEOMETRY OPTIMIZATION CYCLE   1            *
         *************************************************************
---------------------------------
CARTESIAN COORDINATES (ANGSTROEM)
---------------------------------
  C     -1.720570   -0.430400   -0.565690
  C     -0.234820   -0.651260   -0.495090
  Br     0.762660    0.954870   -1.044590
  H     -2.217190   -1.350680   -0.218660
  H     -2.031250    0.374470    0.115460
  H     -2.067070   -0.193300   -1.582440
  H      0.115660   -1.439470   -1.172380
  H      0.067220   -0.874730    0.539710
  Br    -0.882080   -1.686610    2.779570

----------------------------
CARTESIAN COORDINATES (A.U.)
----------------------------
  NO LB      ZA    FRAG     MASS         X           Y           Z
   0 C     6.0000    0    12.011   -3.251406   -0.813338   -1.068999
   1 C     6.0000    0    12.011   -0.443745   -1.230703   -0.935585
   2 Br   35.0000    0    79.900    1.441219    1.804443   -1.973989
   3 H     1.0000    0     1.008   -4.189882   -2.552415   -0.413208
   4 H     1.0000    0     1.008   -3.838506    0.707646    0.218188
   5 H     1.0000    0     1.008   -3.906196   -0.365284   -2.990378
   6 H     1.0000    0     1.008    0.218566   -2.720204   -2.215477
   7 H     1.0000    0     1.008    0.127027   -1.653000    1.019904
   8 Br   35.0000    0    79.900   -1.666890   -3.187231    5.252626

--------------------------------
INTERNAL COORDINATES (ANGSTROEM)
--------------------------------
 C      0   0   0     0.000000000000     0.00000000     0.00000000
 C      1   0   0     1.503734205935     0.00000000     0.00000000
 Br     2   1   0     1.968900753542   111.57031687     0.00000000
 H      1   2   3     1.101806028165   107.93140726   181.67707621
 H      1   2   3     1.099228412024   110.95930675   298.37244763
 H      1   2   3     1.100026918989   112.72309584    60.97271192
 H      2   1   3     1.096737424637   113.09811355   242.40480699
 H      2   1   3     1.100898743073   110.18308658   118.44601941
 Br     8   2   1     2.564623255763   141.59473063    19.80208432

---------------------------
INTERNAL COORDINATES (A.U.)
---------------------------
 C      0   0   0     0.000000000000     0.00000000     0.00000000
 C      1   0   0     2.841645827427     0.00000000     0.00000000
 Br     2   1   0     3.720683209066   111.57031687     0.00000000
 H      1   2   3     2.082111645935   107.93140726   181.67707621
 H      1   2   3     2.077240657350   110.95930675   298.37244763
 H      1   2   3     2.078749616830   112.72309584    60.97271192
 H      2   1   3     2.072533373387   113.09811355   242.40480699
 H      2   1   3     2.080397125586   110.18308658   118.44601941
 Br     8   2   1     4.846435590077   141.59473063    19.80208432

---------------------
BASIS SET INFORMATION
---------------------
There are 3 groups of distinct atoms

 Group   1 Type C   : 7s4p1d contracted to 3s2p1d pattern {511/31/1}
 Group   2 Type Br  : 14s10p6d contracted to 5s4p3d pattern {63311/5311/411}
 Group   3 Type H   : 4s1p contracted to 2s1p pattern {31/1}

Atom   0C    basis set group =>   1
Atom   1C    basis set group =>   1
Atom   2Br   basis set group =>   2
Atom   3H    basis set group =>   3
Atom   4H    basis set group =>   3
Atom   5H    basis set group =>   3
Atom   6H    basis set group =>   3
Atom   7H    basis set group =>   3
Atom   8Br   basis set group =>   2
---------------------------------
AUXILIARY/J BASIS SET INFORMATION
---------------------------------
There are 3 groups of distinct atoms

 Group   1 Type C   : 12s5p4d2f1g contracted to 6s4p3d1f1g pattern {711111/2111/211/2/1}
 Group   2 Type Br  : 19s5p5d3f1g contracted to 8s4p3d2f1g pattern {121111111/2111/311/21/1}
 Group   3 Type H   : 5s2p1d contracted to 3s1p1d pattern {311/2/1}

Atom   0C    basis set group =>   1
Atom   1C    basis set group =>   1
Atom   2Br   basis set group =>   2
Atom   3H    basis set group =>   3
Atom   4H    basis set group =>   3
Atom   5H    basis set group =>   3
Atom   6H    basis set group =>   3
Atom   7H    basis set group =>   3
Atom   8Br   basis set group =>   2
[1631282505.860051] [comp0805:33354:0]            sys.c:618  UCX  ERROR shmget(size=2097152 flags=0xfb0) for mm_recv_desc failed: Operation not permitted, please check shared memory limits by 'ipcs -l'
[1631282505.864732] [comp0805:33356:0]            sys.c:618  UCX  ERROR shmget(size=2097152 flags=0xfb0) for mm_recv_desc failed: Operation not permitted, please check shared memory limits by 'ipcs -l'
[1631282505.865366] [comp0805:33352:0]            sys.c:618  UCX  ERROR shmget(size=2097152 flags=0xfb0) for mm_recv_desc failed: Operation not permitted, please check shared memory limits by 'ipcs -l'
[1631282505.865951] [comp0805:33360:0]            sys.c:618  UCX  ERROR shmget(size=2097152 flags=0xfb0) for mm_recv_desc failed: Operation not permitted, please check shared memory limits by 'ipcs -l'
[1631282505.873121] [comp0805:33352:0]            sys.c:618  UCX  ERROR shmget(size=2097152 flags=0xb80) for ucp_am_bufs failed: Operation not permitted, please check shared memory limits by 'ipcs -l'
[1631282505.873886] [comp0805:33354:0]            sys.c:618  UCX  ERROR shmget(size=2097152 flags=0xb80) for ucp_am_bufs failed: Operation not permitted, please check shared memory limits by 'ipcs -l'
[1631282505.877996] [comp0805:33356:0]            sys.c:618  UCX  ERROR shmget(size=2097152 flags=0xb80) for ucp_am_bufs failed: Operation not permitted, please check shared memory limits by 'ipcs -l'
[1631282505.878947] [comp0805:33360:0]            sys.c:618  UCX  ERROR shmget(size=2097152 flags=0xb80) for ucp_am_bufs failed: Operation not permitted, please check shared memory limits by 'ipcs -l'


           ************************************************************
           *        Program running with 4 parallel MPI-processes     *
           *              working on a common directory               *
           ************************************************************
------------------------------------------------------------------------------
                           ORCA GTO INTEGRAL CALCULATION
                           -- RI-GTO INTEGRALS CHOSEN --
------------------------------------------------------------------------------

                         BASIS SET STATISTICS AND STARTUP INFO

Gaussian basis set:
 # of primitive gaussian shells          ...  109
 # of primitive gaussian functions       ...  231
 # of contracted shells                  ...   51
 # of contracted basis functions         ...  117
 Highest angular momentum                ...    2
 Maximum contraction depth               ...    6
Auxiliary gaussian basis set:
 # of primitive gaussian shells          ...  154
 # of primitive gaussian functions       ...  398
 # of contracted shells                  ...   91
 # of contracted aux-basis functions     ...  269
 Highest angular momentum                ...    4
 Maximum contraction depth               ...   12
Ratio of auxiliary to basis functions    ...  2.30
Integral package used                  ... LIBINT
 One Electron integrals                  ... done
 Ordering auxiliary basis shells         ... done
 Integral threshhold             Thresh  ...  2.500e-11
 Primitive cut-off               TCut    ...  2.500e-12
 Pre-screening matrix                    ... done
 Shell pair data                         ... 
 Ordering of the shell pairs             ... done (   0.000 sec) 1191 of 1326 pairs
 Determination of significant pairs      ... done (   0.000 sec)
 Creation of shell pair data             ... done (   0.000 sec)
 Storage of shell pair data              ... done (   0.000 sec)
 Shell pair data done in (   0.001 sec)
 Computing two index integrals           ... done
 Cholesky decomposition of the V-matrix  ... done


Timings:
 Total evaluation time                   ...   0.389 sec (  0.006 min)
 One electron matrix time                ...   0.015 sec (  0.000 min) =  3.9%
 Schwartz matrix evaluation time         ...   0.143 sec (  0.002 min) = 36.8%
 Two index repulsion integral time       ...   0.002 sec (  0.000 min) =  0.4%
 Cholesky decomposition of V             ...   0.188 sec (  0.003 min) = 48.3%
 Three index repulsion integral time     ...   0.000 sec (  0.000 min) =  0.0%

[1631282507.443684] [comp0805:33441:0]            sys.c:618  UCX  ERROR shmget(size=2097152 flags=0xfb0) for mm_recv_desc failed: Operation not permitted, please check shared memory limits by 'ipcs -l'
[1631282507.444173] [comp0805:33444:0]            sys.c:618  UCX  ERROR shmget(size=2097152 flags=0xfb0) for mm_recv_desc failed: Operation not permitted, please check shared memory limits by 'ipcs -l'
[1631282507.444573] [comp0805:33437:0]            sys.c:618  UCX  ERROR shmget(size=2097152 flags=0xfb0) for mm_recv_desc failed: Operation not permitted, please check shared memory limits by 'ipcs -l'
[1631282507.444655] [comp0805:33448:0]            sys.c:618  UCX  ERROR shmget(size=2097152 flags=0xfb0) for mm_recv_desc failed: Operation not permitted, please check shared memory limits by 'ipcs -l'
[1631282507.451457] [comp0805:33437:0]            sys.c:618  UCX  ERROR shmget(size=2097152 flags=0xb80) for ucp_am_bufs failed: Operation not permitted, please check shared memory limits by 'ipcs -l'
[1631282507.452378] [comp0805:33441:0]            sys.c:618  UCX  ERROR shmget(size=2097152 flags=0xb80) for ucp_am_bufs failed: Operation not permitted, please check shared memory limits by 'ipcs -l'


           ************************************************************
           *        Program running with 4 parallel MPI-processes     *
           *              working on a common directory               *
           ************************************************************
[1631282507.456582] [comp0805:33444:0]            sys.c:618  UCX  ERROR shmget(size=2097152 flags=0xb80) for ucp_am_bufs failed: Operation not permitted, please check shared memory limits by 'ipcs -l'
[1631282507.456694] [comp0805:33448:0]            sys.c:618  UCX  ERROR shmget(size=2097152 flags=0xb80) for ucp_am_bufs failed: Operation not permitted, please check shared memory limits by 'ipcs -l'
-------------------------------------------------------------------------------
                                 ORCA SCF
-------------------------------------------------------------------------------

------------
SCF SETTINGS
------------
Hamiltonian:
 Density Functional     Method          .... DFT(GTOs)
 Exchange Functional    Exchange        .... PBE
   PBE kappa parameter   XKappa         ....  0.804000
   PBE mue parameter    XMuePBE         ....  0.219520
 Correlation Functional Correlation     .... PBE
   PBE beta parameter  CBetaPBE         ....  0.066725
 LDA part of GGA corr.  LDAOpt          .... PW91-LDA
 Gradients option       PostSCFGGA      .... off
 Hybrid DFT is turned on
   Fraction HF Exchange ScalHFX         ....  0.250000
   Scaling of DF-GGA-X  ScalDFX         ....  0.750000
   Scaling of DF-GGA-C  ScalDFC         ....  1.000000
   Scaling of DF-LDA-C  ScalLDAC        ....  1.000000
   Perturbative correction              ....  0.000000
   Density functional embedding theory  .... OFF
   NL short-range parameter             ....  6.900000
 RI-approximation to the Coulomb term is turned on
   Number of auxiliary basis functions  .... 269
   RIJ-COSX (HFX calculated with COS-X)).... on


General Settings:
 Integral files         IntName         .... manual_reactants_328
 Hartree-Fock type      HFTyp           .... RHF
 Total Charge           Charge          ....   -1
 Multiplicity           Mult            ....    1
 Number of Electrons    NEL             ....   88
 Basis Dimension        Dim             ....  117
 Nuclear Repulsion      ENuc            ....    383.4409784252 Eh

Convergence Acceleration:
 DIIS                   CNVDIIS         .... on
   Start iteration      DIISMaxIt       ....    12
   Startup error        DIISStart       ....  0.200000
   # of expansion vecs  DIISMaxEq       ....     5
   Bias factor          DIISBfac        ....   1.050
   Max. coefficient     DIISMaxC        ....  10.000
 Newton-Raphson         CNVNR           .... off
 SOSCF                  CNVSOSCF        .... on
   Start iteration      SOSCFMaxIt      ....   150
   Startup grad/error   SOSCFStart      ....  0.003300
 Level Shifting         CNVShift        .... on
   Level shift para.    LevelShift      ....    0.2500
   Turn off err/grad.   ShiftErr        ....    0.0010
 Zerner damping         CNVZerner       .... off
 Static damping         CNVDamp         .... on
   Fraction old density DampFac         ....    0.7000
   Max. Damping (<1)    DampMax         ....    0.9800
   Min. Damping (>=0)   DampMin         ....    0.0000
   Turn off err/grad.   DampErr         ....    0.1000
 Fernandez-Rico         CNVRico         .... off

SCF Procedure:
 Maximum # iterations   MaxIter         ....   250
 SCF integral mode      SCFMode         .... Direct
   Integral package                     .... LIBINT
 Reset frequency        DirectResetFreq ....    20
 Integral Threshold     Thresh          ....  2.500e-11 Eh
 Primitive CutOff       TCut            ....  2.500e-12 Eh

Convergence Tolerance:
 Convergence Check Mode ConvCheckMode   .... Total+1el-Energy
 Convergence forced     ConvForced      .... 0
 Energy Change          TolE            ....  1.000e-08 Eh
 1-El. energy change                    ....  1.000e-05 Eh
 Orbital Gradient       TolG            ....  1.000e-05
 Orbital Rotation angle TolX            ....  1.000e-05
 DIIS Error             TolErr          ....  5.000e-07


Diagonalization of the overlap matrix:
Smallest eigenvalue                        ... 3.648e-03
Time for diagonalization                   ...    0.005 sec
Threshold for overlap eigenvalues          ... 1.000e-08
Number of eigenvalues below threshold      ... 0
Time for construction of square roots      ...    0.001 sec
Total time needed                          ...    0.007 sec

-------------------
DFT GRID GENERATION
-------------------

General Integration Accuracy     IntAcc      ...  4.340
Radial Grid Type                 RadialGrid  ... Gauss-Chebyshev
Angular Grid (max. acc.)         AngularGrid ... Lebedev-110
Angular grid pruning method      GridPruning ... 3 (G Style)
Weight generation scheme         WeightScheme... Becke
Basis function cutoff            BFCut       ...    1.0000e-11
Integration weight cutoff        WCut        ...    1.0000e-14
Grids for H and He will be reduced by one unit

# of grid points (after initial pruning)     ...  13062 (   0.0 sec)
# of grid points (after weights+screening)   ...  12633 (   0.0 sec)
nearest neighbour list constructed           ...    0.0 sec
Grid point re-assignment to atoms done       ...    0.0 sec
Grid point division into batches done        ...    0.0 sec
Reduced shell lists constructed in    0.1 sec

Total number of grid points                  ...    12633
Total number of batches                      ...      202
Average number of points per batch           ...       62
Average number of grid points per atom       ...     1404
Average number of shells per batch           ...    34.98 (68.59%)
Average number of basis functions per batch  ...    77.21 (65.99%)
Average number of large shells per batch     ...    29.79 (85.16%)
Average number of large basis fcns per batch ...    64.52 (83.56%)
Maximum spatial batch extension              ...  19.21, 15.71, 17.34 au
Average spatial batch extension              ...   0.97,  0.83,  0.85 au

Time for grid setup =    0.079 sec

------------------------------
INITIAL GUESS: MODEL POTENTIAL
------------------------------
Loading Hartree-Fock densities                     ... done
Calculating cut-offs                               ... done
Setting up the integral package                    ... done
Initializing the effective Hamiltonian             ... done
Starting the Coulomb interaction                   ... done (   0.0 sec)
Reading the grid                                   ... done
Mapping shells                                     ... done
Starting the XC term evaluation                    ... done (   0.0 sec)
  promolecular density results
     # of electrons  =     86.993305193
     EX              =   -190.207004743
     EC              =     -3.960380198
     EX+EC           =   -194.167384941
Transforming the Hamiltonian                       ... done (   0.0 sec)
Diagonalizing the Hamiltonian                      ... done (   0.0 sec)
Back transforming the eigenvectors                 ... done (   0.0 sec)
Now organizing SCF variables                       ... done
                      ------------------
                      INITIAL GUESS DONE (   0.2 sec)
                      ------------------
--------------------
COSX GRID GENERATION
--------------------

General Integration Accuracy     IntAcc      ...  3.340
Radial Grid Type                 RadialGrid  ... Gauss-Chebyshev
Angular Grid (max. acc.)         AngularGrid ... Lebedev-50
Angular grid pruning method      GridPruning ... 3 (G Style)
Weight generation scheme         WeightScheme... Becke
Basis function cutoff            BFCut       ...    1.0000e-11
Integration weight cutoff        WCut        ...    1.0000e-14
Grids for H and He will be reduced by one unit

# of grid points (after initial pruning)     ...   4844 (   0.0 sec)
# of grid points (after weights+screening)   ...   4694 (   0.0 sec)
nearest neighbour list constructed           ...    0.0 sec
Grid point re-assignment to atoms done       ...    0.0 sec
Grid point division into batches done        ...    0.0 sec
Reduced shell lists constructed in    0.0 sec

Total number of grid points                  ...     4694
Total number of batches                      ...       77
Average number of points per batch           ...       60
Average number of grid points per atom       ...      522
Average number of shells per batch           ...    36.81 (72.18%)
Average number of basis functions per batch  ...    82.14 (70.21%)
Average number of large shells per batch     ...    31.95 (86.80%)
Average number of large basis fcns per batch ...    69.76 (84.93%)
Maximum spatial batch extension              ...  13.37, 14.82, 21.29 au
Average spatial batch extension              ...   1.18,  1.11,  1.34 au

Overlap Fitting                  UseSFitting ... on
Constructing numerical overlap ... done (      0.0 sec)
Inverting numerical overlap    ... done (      0.0 sec)
Obtaining analytic overlap     ... done (      0.0 sec)
Final contraction and storage  ... done (      0.0 sec)


General Integration Accuracy     IntAcc      ...  3.670
Radial Grid Type                 RadialGrid  ... Gauss-Chebyshev
Angular Grid (max. acc.)         AngularGrid ... Lebedev-50
Angular grid pruning method      GridPruning ... 3 (G Style)
Weight generation scheme         WeightScheme... Becke
Basis function cutoff            BFCut       ...    1.0000e-11
Integration weight cutoff        WCut        ...    1.0000e-14
Grids for H and He will be reduced by one unit

# of grid points (after initial pruning)     ...   6004 (   0.0 sec)
# of grid points (after weights+screening)   ...   5811 (   0.0 sec)
nearest neighbour list constructed           ...    0.0 sec
Grid point re-assignment to atoms done       ...    0.0 sec
Grid point division into batches done        ...    0.0 sec
Reduced shell lists constructed in    0.0 sec

Total number of grid points                  ...     5811
Total number of batches                      ...       95
Average number of points per batch           ...       61
Average number of grid points per atom       ...      646
Average number of shells per batch           ...    36.08 (70.75%)
Average number of basis functions per batch  ...    80.32 (68.65%)
Average number of large shells per batch     ...    31.24 (86.59%)
Average number of large basis fcns per batch ...    67.88 (84.51%)
Maximum spatial batch extension              ...  16.82, 15.13, 22.48 au
Average spatial batch extension              ...   1.22,  1.05,  1.16 au

Overlap Fitting                  UseSFitting ... on
Constructing numerical overlap ... done (      0.0 sec)
Inverting numerical overlap    ... done (      0.0 sec)
Obtaining analytic overlap     ... done (      0.0 sec)
Final contraction and storage  ... done (      0.0 sec)


General Integration Accuracy     IntAcc      ...  4.010
Radial Grid Type                 RadialGrid  ... Gauss-Chebyshev
Angular Grid (max. acc.)         AngularGrid ... Lebedev-110
Angular grid pruning method      GridPruning ... 3 (G Style)
Weight generation scheme         WeightScheme... Becke
Basis function cutoff            BFCut       ...    1.0000e-11
Integration weight cutoff        WCut        ...    1.0000e-14
Grids for H and He will be reduced by one unit

# of grid points (after initial pruning)     ...  11440 (   0.0 sec)
# of grid points (after weights+screening)   ...  11072 (   0.0 sec)
nearest neighbour list constructed           ...    0.0 sec
Grid point re-assignment to atoms done       ...    0.0 sec
Grid point division into batches done        ...    0.0 sec
Reduced shell lists constructed in    0.0 sec

Total number of grid points                  ...    11072
Total number of batches                      ...      179
Average number of points per batch           ...       61
Average number of grid points per atom       ...     1230
Average number of shells per batch           ...    35.04 (68.71%)
Average number of basis functions per batch  ...    77.52 (66.26%)
Average number of large shells per batch     ...    29.87 (85.24%)
Average number of large basis fcns per batch ...    64.83 (83.62%)
Maximum spatial batch extension              ...  18.33, 14.81, 18.13 au
Average spatial batch extension              ...   1.01,  0.92,  0.93 au

Overlap Fitting                  UseSFitting ... on
Constructing numerical overlap ... done (      0.0 sec)
Inverting numerical overlap    ... done (      0.0 sec)
Obtaining analytic overlap     ... done (      0.0 sec)
Final contraction and storage  ... done (      0.0 sec)

Time for X-Grid setup             =    0.145 sec

--------------------
CPCM SOLVATION MODEL
--------------------
CPCM parameters:
  Epsilon                                         ...      20.7000
  Refrac                                          ...       1.3590
  Rsolv                                           ...       1.3000
  Surface type                                    ... GAUSSIAN VDW
  Epsilon function type                           ...         CPCM
Radii:
 Radius for C  used is    3.8550 Bohr (=   2.0400 Ang.)
 Radius for Br used is    4.1952 Bohr (=   2.2200 Ang.)
 Radius for H  used is    2.4944 Bohr (=   1.3200 Ang.)
Calculating surface                               ...        done! (  0.0s)
GEPOL surface points                              ...          591
GEPOL Volume                                      ...     900.3037
GEPOL Surface-area                                ...     553.8879
Calculating surface distance matrix               ...        done! (  0.0s)
Performing Cholesky decomposition & store         ...        done! (  0.0s)
Overall time for CPCM initialization              ...                 0.0s
--------------
SCF ITERATIONS
--------------
ITER       Energy         Delta-E        Max-DP      RMS-DP      [F,P]     Damp
               ***  Starting incremental Fock matrix formation  ***
  0  -5226.2232455907   0.000000000000 0.11084958  0.00245043  0.1605530 0.7000
  1  -5226.2698667003  -0.046621109592 0.08401639  0.00187880  0.0846521 0.7000
                               ***Turning on DIIS***
  2  -5226.2915503164  -0.021683616074 0.16478104  0.00370206  0.0409931 0.0000
  3  -5226.3241151245  -0.032564808135 0.03829703  0.00105855  0.0458398 0.0000
  4  -5226.3310695535  -0.006954429010 0.01834039  0.00036714  0.0081340 0.0000
                      *** Initiating the SOSCF procedure ***
                           *** Shutting down DIIS ***
                      *** Re-Reading the Fockian *** 
                      *** Removing any level shift *** 
ITER      Energy       Delta-E        Grad      Rot      Max-DP    RMS-DP
  5  -5226.33135983  -0.0002902778  0.000607  0.000607  0.001458  0.000077
               *** Restarting incremental Fock matrix formation ***
  6  -5226.33136782  -0.0000079901  0.000282  0.000548  0.001083  0.000052
  7  -5226.33136822  -0.0000004025  0.000199  0.000156  0.000751  0.000015
  8  -5226.33136957  -0.0000013464  0.000026  0.000018  0.000133  0.000003
  9  -5226.33136956   0.0000000122  0.000024  0.000020  0.000052  0.000001
 10  -5226.33136958  -0.0000000201  0.000003  0.000005  0.000017  0.000000
 11  -5226.33136963  -0.0000000512  0.000003  0.000002  0.000010  0.000000
                  ***Gradient check signals convergence***
              ***Rediagonalizing the Fockian in SOSCF/NRSCF***

               *****************************************************
               *                     SUCCESS                       *
               *           SCF CONVERGED AFTER  12 CYCLES          *
               *****************************************************

Setting up the final grid:

General Integration Accuracy     IntAcc      ...  4.670
Radial Grid Type                 RadialGrid  ... Gauss-Chebyshev
Angular Grid (max. acc.)         AngularGrid ... Lebedev-302
Angular grid pruning method      GridPruning ... 3 (G Style)
Weight generation scheme         WeightScheme... Becke
Basis function cutoff            BFCut       ...    1.0000e-11
Integration weight cutoff        WCut        ...    1.0000e-14
Grids for H and He will be reduced by one unit

# of grid points (after initial pruning)     ...  48626 (   0.0 sec)
# of grid points (after weights+screening)   ...  46558 (   0.0 sec)
nearest neighbour list constructed           ...    0.0 sec
Grid point re-assignment to atoms done       ...    0.0 sec
Grid point division into batches done        ...    0.2 sec
Reduced shell lists constructed in    0.3 sec

Total number of grid points                  ...    46558
Total number of batches                      ...      733
Average number of points per batch           ...       63
Average number of grid points per atom       ...     5173
Average number of shells per batch           ...    33.16 (65.01%)
Average number of basis functions per batch  ...    72.92 (62.32%)
Average number of large shells per batch     ...    27.78 (83.78%)
Average number of large basis fcns per batch ...    59.78 (81.98%)
Maximum spatial batch extension              ...  16.15, 13.87, 16.61 au
Average spatial batch extension              ...   0.60,  0.57,  0.64 au

Final grid set up in    0.3 sec
Final integration                            ... done (   0.1 sec)
Change in XC energy                          ...    -0.000164225
Integrated number of electrons               ...    87.999998112
Previous integrated no of electrons          ...    87.997234596
Old exchange energy                            =    -47.892078922 Eh
New exchange energy                            =    -47.891973435 Eh
Exchange energy change after final integration =      0.000105487 Eh
Total energy after final integration           =  -5226.331428318 Eh
Final COS-X integration done in                =     0.561 sec

----------------
TOTAL SCF ENERGY
----------------

Total Energy       :        -5226.33142832 Eh         -142215.70827 eV

Components:
Nuclear Repulsion  :          383.44097843 Eh           10433.95948 eV
Electronic Energy  :        -5609.77240674 Eh         -152649.66775 eV
One Electron Energy:        -8053.71609948 Eh         -219152.75658 eV
Two Electron Energy:         2443.94369274 Eh           66503.08883 eV
CPCM Dielectric    :           -0.09774894 Eh              -2.65988 eV

Virial components:
Potential Energy   :       -10446.67777345 Eh         -284268.55415 eV
Kinetic Energy     :         5220.34634513 Eh          142052.84588 eV
Virial Ratio       :            2.00114649


DFT components:
N(Alpha)           :       43.999999056079 electrons
N(Beta)            :       43.999999056079 electrons
N(Total)           :       87.999998112158 electrons
E(X)               :     -143.062338243615 Eh       
E(C)               :       -4.010406115976 Eh       
E(XC)              :     -147.072744359591 Eh       
DFET-embed. en.    :        0.000000000000 Eh       
CPCM Solvation Model Properties:
Surface-charge          :            0.98083342
Charge-correction       :           -0.00275203 Eh              -0.07489 eV
Free-energy (cav+disp)  :            0.00377702 Eh               0.10278 eV
Corrected G(solv)       :        -5226.33040333 Eh         -142215.68038 eV

---------------
SCF CONVERGENCE
---------------

  Last Energy change         ...    4.9441e-08  Tolerance :   1.0000e-08
  Last MAX-Density change    ...    5.2180e-15  Tolerance :   1.0000e-07
  Last RMS-Density change    ...    1.3958e-16  Tolerance :   5.0000e-09
  Last Orbital Gradient      ...    6.0649e-07  Tolerance :   1.0000e-05
  Last Orbital Rotation      ...    2.1436e-07  Tolerance :   1.0000e-05

             **** THE GBW FILE WAS UPDATED (manual_reactants_328.gbw) ****
             **** DENSITY FILE WAS UPDATED (manual_reactants_328.scfp) ****
             **** ENERGY FILE WAS UPDATED (manual_reactants_328.en.tmp) ****
             **** THE GBW FILE WAS UPDATED (manual_reactants_328.gbw) ****
             **** DENSITY FILE WAS UPDATED (manual_reactants_328.scfp) ****
----------------
ORBITAL ENERGIES
----------------

  NO   OCC          E(Eh)            E(eV) 
   0   2.0000    -483.168403    -13147.6807 
   1   2.0000    -483.063961    -13144.8387 
   2   2.0000     -62.604739     -1703.5616 
   3   2.0000     -62.499189     -1700.6894 
   4   2.0000     -56.393889     -1534.5557 
   5   2.0000     -56.391694     -1534.4960 
   6   2.0000     -56.391534     -1534.4916 
   7   2.0000     -56.287168     -1531.6517 
   8   2.0000     -56.287076     -1531.6492 
   9   2.0000     -56.286793     -1531.6415 
  10   2.0000     -10.266239      -279.3586 
  11   2.0000     -10.220944      -278.1260 
  12   2.0000      -8.750036      -238.1006 
  13   2.0000      -8.642725      -235.1805 
  14   2.0000      -6.564086      -178.6178 
  15   2.0000      -6.552317      -178.2976 
  16   2.0000      -6.552264      -178.2962 
  17   2.0000      -6.449220      -175.4922 
  18   2.0000      -6.448957      -175.4851 
  19   2.0000      -6.448916      -175.4839 
  20   2.0000      -2.649613       -72.0996 
  21   2.0000      -2.646490       -72.0147 
  22   2.0000      -2.646364       -72.0112 
  23   2.0000      -2.636831       -71.7518 
  24   2.0000      -2.636805       -71.7511 
  25   2.0000      -2.536017       -69.0085 
  26   2.0000      -2.535999       -69.0080 
  27   2.0000      -2.535968       -69.0072 
  28   2.0000      -2.535764       -69.0016 
  29   2.0000      -2.535758       -69.0015 
  30   2.0000      -0.820336       -22.3225 
  31   2.0000      -0.729947       -19.8629 
  32   2.0000      -0.652909       -17.7666 
  33   2.0000      -0.605137       -16.4666 
  34   2.0000      -0.464421       -12.6375 
  35   2.0000      -0.437136       -11.8951 
  36   2.0000      -0.399136       -10.8611 
  37   2.0000      -0.362595        -9.8667 
  38   2.0000      -0.346236        -9.4216 
  39   2.0000      -0.280750        -7.6396 
  40   2.0000      -0.279443        -7.6040 
  41   2.0000      -0.215066        -5.8522 
  42   2.0000      -0.214822        -5.8456 
  43   2.0000      -0.211531        -5.7560 
  44   0.0000       0.026667         0.7256 
  45   0.0000       0.101831         2.7710 
  46   0.0000       0.133774         3.6402 
  47   0.0000       0.149863         4.0780 
  48   0.0000       0.161404         4.3920 
  49   0.0000       0.186447         5.0735 
  50   0.0000       0.232418         6.3244 
  51   0.0000       0.344317         9.3693 
  52   0.0000       0.389697        10.6042 
  53   0.0000       0.412489        11.2244 
  54   0.0000       0.435804        11.8588 
  55   0.0000       0.464184        12.6311 
  56   0.0000       0.473092        12.8735 
  57   0.0000       0.494814        13.4646 
  58   0.0000       0.561087        15.2680 
  59   0.0000       0.564082        15.3494 
  60   0.0000       0.594002        16.1636 
  61   0.0000       0.608549        16.5595 
  62   0.0000       0.614761        16.7285 
  63   0.0000       0.630719        17.1627 
  64   0.0000       0.632289        17.2054 
  65   0.0000       0.634184        17.2570 
  66   0.0000       0.639686        17.4068 
  67   0.0000       0.643187        17.5020 
  68   0.0000       0.667172        18.1547 
  69   0.0000       0.679306        18.4849 
  70   0.0000       0.700155        19.0522 
  71   0.0000       0.711520        19.3614 
  72   0.0000       0.721619        19.6363 
  73   0.0000       0.722104        19.6494 
  74   0.0000       0.735000        20.0004 
  75   0.0000       0.762993        20.7621 
  76   0.0000       0.788661        21.4606 
  77   0.0000       0.804120        21.8812 
  78   0.0000       0.850138        23.1334 
  79   0.0000       0.906412        24.6647 
  80   0.0000       1.035391        28.1744 
  81   0.0000       1.064649        28.9706 
  82   0.0000       1.193741        32.4833 
  83   0.0000       1.244624        33.8679 
  84   0.0000       1.378120        37.5006 
  85   0.0000       1.552220        42.2381 
  86   0.0000       1.565561        42.6011 
  87   0.0000       1.737570        47.2817 
  88   0.0000       1.776756        48.3480 
  89   0.0000       1.786175        48.6043 
  90   0.0000       1.819467        49.5102 
  91   0.0000       1.846236        50.2386 
  92   0.0000       1.872117        50.9429 
  93   0.0000       1.892146        51.4879 
  94   0.0000       1.975855        53.7657 
  95   0.0000       2.076223        56.4969 
  96   0.0000       2.185217        59.4628 
  97   0.0000       2.281670        62.0874 
  98   0.0000       2.373225        64.5787 
  99   0.0000       2.455178        66.8088 
 100   0.0000       2.520184        68.5777 
 101   0.0000       2.582565        70.2752 
 102   0.0000       2.758520        75.0632 
 103   0.0000       2.874286        78.2133 
 104   0.0000       2.972278        80.8798 
 105   0.0000       2.990312        81.3705 
 106   0.0000       3.029664        82.4413 
 107   0.0000       3.477958        94.6401 
 108   0.0000       3.496507        95.1448 
 109   0.0000       3.561324        96.9086 
 110   0.0000       3.562573        96.9425 
 111   0.0000       3.566455        97.0482 
 112   0.0000       3.578340        97.3716 
 113   0.0000       3.587111        97.6103 
 114   0.0000       3.590879        97.7128 
 115   0.0000       3.618251        98.4576 
 116   0.0000       3.807826       103.6162 

                    ********************************
                    * MULLIKEN POPULATION ANALYSIS *
                    ********************************

-----------------------
MULLIKEN ATOMIC CHARGES
-----------------------
   0 C :   -0.058539
   1 C :   -0.127013
   2 Br:   -0.234385
   3 H :    0.052464
   4 H :    0.049165
   5 H :    0.052020
   6 H :    0.098941
   7 H :    0.078776
   8 Br:   -0.911428
Sum of atomic charges:   -1.0000000

--------------------------------
MULLIKEN REDUCED ORBITAL CHARGES
--------------------------------
  0 C s       :     3.039333  s :     3.039333
      pz      :     1.024400  p :     2.991537
      px      :     0.926900
      py      :     1.040237
      dz2     :     0.005586  d :     0.027669
      dxz     :     0.005373
      dyz     :     0.005169
      dx2y2   :     0.006317
      dxy     :     0.005225
  1 C s       :     3.169023  s :     3.169023
      pz      :     1.086622  p :     2.921828
      px      :     0.967820
      py      :     0.867386
      dz2     :     0.006371  d :     0.036163
      dxz     :     0.006584
      dyz     :     0.006341
      dx2y2   :     0.007613
      dxy     :     0.009254
  2 Brs       :     7.971313  s :     7.971313
      pz      :     5.928760  p :    17.220859
      px      :     5.799610
      py      :     5.492489
      dz2     :     2.005861  d :    10.042212
      dxz     :     2.003155
      dyz     :     2.009535
      dx2y2   :     2.010001
      dxy     :     2.013660
  3 H s       :     0.923108  s :     0.923108
      pz      :     0.006294  p :     0.024428
      px      :     0.006277
      py      :     0.011857
  4 H s       :     0.926965  s :     0.926965
      pz      :     0.008843  p :     0.023870
      px      :     0.004670
      py      :     0.010357
  5 H s       :     0.924375  s :     0.924375
      pz      :     0.013394  p :     0.023605
      px      :     0.004805
      py      :     0.005406
  6 H s       :     0.878161  s :     0.878161
      pz      :     0.008851  p :     0.022898
      px      :     0.004699
      py      :     0.009348
  7 H s       :     0.895792  s :     0.895792
      pz      :     0.017342  p :     0.025432
      px      :     0.004104
      py      :     0.003985
  8 Brs       :     7.995670  s :     7.995670
      pz      :     5.949662  p :    17.914645
      px      :     5.976815
      py      :     5.988169
      dz2     :     2.000447  d :    10.001112
      dxz     :     2.000385
      dyz     :     2.000221
      dx2y2   :     2.000008
      dxy     :     2.000051


                     *******************************
                     * LOEWDIN POPULATION ANALYSIS *
                     *******************************

----------------------
LOEWDIN ATOMIC CHARGES
----------------------
   0 C :   -0.088801
   1 C :   -0.086822
   2 Br:   -0.059825
   3 H :    0.037361
   4 H :    0.030527
   5 H :    0.029270
   6 H :    0.035176
   7 H :    0.005422
   8 Br:   -0.902308

-------------------------------
LOEWDIN REDUCED ORBITAL CHARGES
-------------------------------
  0 C s       :     2.848298  s :     2.848298
      pz      :     1.073052  p :     3.168220
      px      :     1.017327
      py      :     1.077840
      dz2     :     0.015316  d :     0.072283
      dxz     :     0.012423
      dyz     :     0.013525
      dx2y2   :     0.018130
      dxy     :     0.012889
  1 C s       :     2.916363  s :     2.916363
      pz      :     1.111329  p :     3.087030
      px      :     1.033687
      py      :     0.942014
      dz2     :     0.016435  d :     0.083429
      dxz     :     0.013204
      dyz     :     0.015298
      dx2y2   :     0.019130
      dxy     :     0.019362
  2 Brs       :     7.831199  s :     7.831199
      pz      :     5.910177  p :    17.176239
      px      :     5.776958
      py      :     5.489104
      dz2     :     2.007020  d :    10.052388
      dxz     :     2.003846
      dyz     :     2.011723
      dx2y2   :     2.011821
      dxy     :     2.017977
  3 H s       :     0.895344  s :     0.895344
      pz      :     0.015978  p :     0.067294
      px      :     0.018349
      py      :     0.032968
  4 H s       :     0.902989  s :     0.902989
      pz      :     0.024007  p :     0.066484
      px      :     0.014366
      py      :     0.028111
  5 H s       :     0.904446  s :     0.904446
      pz      :     0.037155  p :     0.066284
      px      :     0.015026
      py      :     0.014103
  6 H s       :     0.893783  s :     0.893783
      pz      :     0.025774  p :     0.071041
      px      :     0.015559
      py      :     0.029709
  7 H s       :     0.911455  s :     0.911455
      pz      :     0.055175  p :     0.083123
      px      :     0.014088
      py      :     0.013859
  8 Brs       :     7.990213  s :     7.990213
      pz      :     5.941378  p :    17.910829
      px      :     5.980576
      py      :     5.988874
      dz2     :     2.000480  d :    10.001266
      dxz     :     2.000480
      dyz     :     2.000233
      dx2y2   :     2.000009
      dxy     :     2.000063


                      *****************************
                      * MAYER POPULATION ANALYSIS *
                      *****************************

  NA   - Mulliken gross atomic population
  ZA   - Total nuclear charge
  QA   - Mulliken gross atomic charge
  VA   - Mayer's total valence
  BVA  - Mayer's bonded valence
  FA   - Mayer's free valence

  ATOM       NA         ZA         QA         VA         BVA        FA
  0 C      6.0585     6.0000    -0.0585     3.9358     3.9358    -0.0000
  1 C      6.1270     6.0000    -0.1270     3.8959     3.8959    -0.0000
  2 Br    35.2344    35.0000    -0.2344     0.9920     0.9920     0.0000
  3 H      0.9475     1.0000     0.0525     1.0124     1.0124     0.0000
  4 H      0.9508     1.0000     0.0492     1.0014     1.0014    -0.0000
  5 H      0.9480     1.0000     0.0520     0.9866     0.9866    -0.0000
  6 H      0.9011     1.0000     0.0989     0.9636     0.9636     0.0000
  7 H      0.9212     1.0000     0.0788     1.0624     1.0624     0.0000
  8 Br    35.9114    35.0000    -0.9114     0.1775     0.1775    -0.0000

  Mayer bond orders larger than 0.100000
B(  0-C ,  1-C ) :   1.0734 B(  0-C ,  3-H ) :   0.9491 B(  0-C ,  4-H ) :   0.9696 
B(  0-C ,  5-H ) :   0.9703 B(  1-C ,  2-Br) :   0.9564 B(  1-C ,  6-H ) :   0.9512 
B(  1-C ,  7-H ) :   0.9113 B(  7-H ,  8-Br) :   0.1426 


------------------
HIRSHFELD ANALYSIS
------------------

Total integrated alpha density =     43.998617298
Total integrated beta density  =     43.998617298

  ATOM     CHARGE      SPIN    
   0 C   -0.079327    0.000000
   1 C    0.002541    0.000000
   2 Br  -0.181247    0.000000
   3 H    0.030052    0.000000
   4 H    0.025301    0.000000
   5 H    0.027069    0.000000
   6 H    0.041266    0.000000
   7 H    0.007667    0.000000
   8 Br  -0.870555    0.000000

  TOTAL  -0.997235    0.000000

-------
TIMINGS
-------

Total SCF time: 0 days 0 hours 0 min 9 sec 

Total time                  ....       9.176 sec
Sum of individual times     ....       8.987 sec  ( 97.9%)

Fock matrix formation       ....       8.288 sec  ( 90.3%)
  Split-RI-J                ....       1.401 sec  ( 16.9% of F)
  Chain of spheres X        ....       3.879 sec  ( 46.8% of F)
  COS-X 1 center corr.      ....       0.000 sec  (  0.0% of F)
  XC integration            ....       0.387 sec  (  4.7% of F)
    Basis function eval.    ....       0.158 sec  ( 41.0% of XC)
    Density eval.           ....       0.062 sec  ( 16.1% of XC)
    XC-Functional eval.     ....       0.044 sec  ( 11.4% of XC)
    XC-Potential eval.      ....       0.091 sec  ( 23.6% of XC)
Diagonalization             ....       0.010 sec  (  0.1%)
Density matrix formation    ....       0.002 sec  (  0.0%)
Population analysis         ....       0.025 sec  (  0.3%)
Initial guess               ....       0.137 sec  (  1.5%)
Orbital Transformation      ....       0.000 sec  (  0.0%)
Orbital Orthonormalization  ....       0.000 sec  (  0.0%)
DIIS solution               ....       0.003 sec  (  0.0%)
SOSCF solution              ....       0.007 sec  (  0.1%)
Grid generation             ....       0.513 sec  (  5.6%)


-------------------------------------------------------------------------------
                          DFT DISPERSION CORRECTION                            
                                                                               
                              DFTD3 V3.1  Rev 1                                
                          USING Becke-Johnson damping                          
-------------------------------------------------------------------------------
The PBE0 functional is recognized
Active option DFTDOPT                   ...         4   

molecular C6(AA) [au] = 1867.607379 


            DFT-D V3
 parameters
 s6 scaling factor         :     1.0000 
 a1 scaling factor         :     0.4145 
 s8 scaling factor         :     1.2177 
 a2 scaling factor         :     4.8593 
 ad hoc parameters k1-k3   :    16.0000     1.3333    -4.0000 

 Edisp/kcal,au: -3.978755894348  -0.006340550437 
 E6   /kcal   :  -2.338548761 
 E8   /kcal   :  -1.640207134 
 % E8         :  41.224120732 

-------------------------   ----------------
Dispersion correction           -0.006340550
-------------------------   ----------------


-------------------------   --------------------
FINAL SINGLE POINT ENERGY     -5226.337768867978
-------------------------   --------------------

[1631282517.631838] [comp0805:33530:0]            sys.c:618  UCX  ERROR shmget(size=2097152 flags=0xfb0) for mm_recv_desc failed: Operation not permitted, please check shared memory limits by 'ipcs -l'
[1631282517.636207] [comp0805:33528:0]            sys.c:618  UCX  ERROR shmget(size=2097152 flags=0xfb0) for mm_recv_desc failed: Operation not permitted, please check shared memory limits by 'ipcs -l'
[1631282517.659796] [comp0805:33531:0]            sys.c:618  UCX  ERROR shmget(size=2097152 flags=0xfb0) for mm_recv_desc failed: Operation not permitted, please check shared memory limits by 'ipcs -l'
[1631282517.659989] [comp0805:33529:0]            sys.c:618  UCX  ERROR shmget(size=2097152 flags=0xfb0) for mm_recv_desc failed: Operation not permitted, please check shared memory limits by 'ipcs -l'
[1631282517.667755] [comp0805:33528:0]            sys.c:618  UCX  ERROR shmget(size=2097152 flags=0xb80) for ucp_am_bufs failed: Operation not permitted, please check shared memory limits by 'ipcs -l'


           ************************************************************
           *        Program running with 4 parallel MPI-processes     *
           *              working on a common directory               *
           ************************************************************
[1631282517.670394] [comp0805:33530:0]            sys.c:618  UCX  ERROR shmget(size=2097152 flags=0xb80) for ucp_am_bufs failed: Operation not permitted, please check shared memory limits by 'ipcs -l'
[1631282517.671013] [comp0805:33529:0]            sys.c:618  UCX  ERROR shmget(size=2097152 flags=0xb80) for ucp_am_bufs failed: Operation not permitted, please check shared memory limits by 'ipcs -l'
------------------------------------------------------------------------------
                         ORCA SCF GRADIENT CALCULATION
------------------------------------------------------------------------------

[1631282517.778491] [comp0805:33531:0]            sys.c:618  UCX  ERROR shmget(size=2097152 flags=0xb80) for ucp_am_bufs failed: Operation not permitted, please check shared memory limits by 'ipcs -l'
Gradient of the Kohn-Sham DFT energy:
Kohn-Sham wavefunction type      ... RKS
Hartree-Fock exchange scaling    ...    0.250
Number of operators              ...    1
Number of atoms                  ...    9
Basis set dimensions             ...  117
Integral neglect threshold       ... 2.5e-11
Integral primitive cutoff        ... 2.5e-12

Nuclear repulsion gradient       ... done
One Electron Gradient            ... done
Pre-screening matrix             ... done
RI-J gradient                    ... done
COSX-gradient                    ... done
Exchange-correlation gradient    ... done
Dispersion correction            ... done

------------------
CARTESIAN GRADIENT
------------------

   1   C   :   -0.000256530   -0.000403173    0.000433516
   2   C   :    0.000263520   -0.000244489    0.001551614
   3   Br  :   -0.000256946   -0.000030497    0.000024766
   4   H   :    0.000211859   -0.000209772    0.000649282
   5   H   :   -0.000070982   -0.000302610    0.000089355
   6   H   :   -0.000179429   -0.000253052    0.000093015
   7   H   :   -0.000003452    0.000051113    0.000090063
   8   H   :   -0.001094204   -0.000551787    0.001697348
   9   Br  :    0.000352706    0.001211227   -0.004479288

Difference to translation invariance:
           :   -0.0010334595   -0.0007330384    0.0001496725

Norm of the cartesian gradient     ...    0.0054579744
RMS gradient                       ...    0.0010503877
MAX gradient                       ...    0.0044792880

-------
TIMINGS
-------

Total SCF gradient time            ...        1.789 sec

One electron gradient       ....       0.013 sec  (  0.7%)
Prescreening matrices       ....       0.106 sec  (  5.9%)
RI-J Coulomb gradient       ....       0.224 sec  ( 12.5%)
COSX gradient               ....       0.644 sec  ( 36.0%)
XC gradient                 ....       0.303 sec  ( 17.0%)
CPCM gradient               ....       0.232 sec  ( 12.9%)
   A-Matrix (El+Nuc)        ....       0.017 sec  (  0.9%)
   Potential                ....       0.215 sec  ( 12.0%)
------------------------------------------------------------------------------
                         ORCA GEOMETRY RELAXATION STEP
------------------------------------------------------------------------------

Reading the OPT-File                    .... done
Getting information on internals        .... done
Copying old internal coords+grads       .... done
Making the new internal coordinates     .... (new redundants).... done
Validating the new internal coordinates .... (new redundants).... done
Calculating the B-matrix                .... done
Calculating the G,G- and P matrices     .... done
Transforming gradient to internals      .... done
Projecting the internal gradient        .... done
Number of atoms                         ....   9
Number of internal coordinates          ....  41
Current Energy                          .... -5226.337768868 Eh
Current gradient norm                   ....     0.005457974 Eh/bohr
Maximum allowed component of the step   ....  0.300
Current trust radius                    ....  0.300
Evaluating the initial hessian          ....  (Almloef) done
Projecting the Hessian                  .... done
Forming the augmented Hessian           .... done
Diagonalizing the augmented Hessian     .... done
Last element of RFO vector              ....  0.879560319
Lowest eigenvalues of augmented Hessian:
 -0.001926337  0.006132411  0.019088174  0.034988324  0.080682553
Length of the computed step             ....  0.540937766
Warning: the length of the step is outside the trust region - taking restricted step instead
The input lambda is                     ....    -0.001926
   iter:   1  x=   -0.004127  g=   92.071509 f(x)=     0.202614
   iter:   2  x=   -0.006042  g=   37.527161 f(x)=     0.071850
   iter:   3  x=   -0.006947  g=   20.460606 f(x)=     0.018535
   iter:   4  x=   -0.007082  g=   15.957901 f(x)=     0.002153
   iter:   5  x=   -0.007085  g=   15.404805 f(x)=     0.000038
   iter:   6  x=   -0.007085  g=   15.395036 f(x)=     0.000000
   iter:   7  x=   -0.007085  g=   15.395033 f(x)=     0.000000
The output lambda is                    ....    -0.007085 (7 iterations)
The final length of the internal step   ....  0.300000000
Converting the step to cartesian space:
 Initial RMS(Int)=    0.0468521286
Transforming coordinates:
 Iter   0:  RMS(Cart)=    0.0393899077 RMS(Int)=    0.0441466665
 Iter   1:  RMS(Cart)=    0.0041671856 RMS(Int)=    0.0036126004
 Iter   2:  RMS(Cart)=    0.0000568486 RMS(Int)=    0.0000451933
 Iter   3:  RMS(Cart)=    0.0000009038 RMS(Int)=    0.0000006633
 Iter   4:  RMS(Cart)=    0.0000000165 RMS(Int)=    0.0000000121
done
Storing new coordinates                 .... done

                                .--------------------.
          ----------------------|Geometry convergence|-------------------------
          Item                value                   Tolerance       Converged
          ---------------------------------------------------------------------
          RMS gradient        0.0006364670            0.0001000000      NO
          MAX gradient        0.0031146068            0.0003000000      NO
          RMS step            0.0468521286            0.0020000000      NO
          MAX step            0.2245463810            0.0040000000      NO
          ........................................................
          Max(Bonds)      0.1188      Max(Angles)    1.64
          Max(Dihed)        0.40      Max(Improp)    0.00
          ---------------------------------------------------------------------

The optimization has not yet converged - more geometry cycles are needed


    ---------------------------------------------------------------------------
                         Redundant Internal Coordinates
                            (Angstroem and degrees)

        Definition                    Value    dE/dq     Step     New-Value
    ----------------------------------------------------------------------------
     1. B(C   1,C   0)                1.5037  0.000344  0.0005    1.5043   
     2. B(Br  2,C   1)                1.9689 -0.000091  0.0002    1.9691   
     3. B(H   3,C   0)                1.1018 -0.000430  0.0014    1.1032   
     4. B(H   4,C   0)                1.0992 -0.000057  0.0001    1.0993   
     5. B(H   5,C   0)                1.1000 -0.000101  0.0002    1.1002   
     6. B(H   6,C   1)                1.0967 -0.000044  0.0001    1.0968   
     7. B(H   7,C   1)                1.1009 -0.001135  0.0020    1.1029   
     8. B(Br  8,H   7)                2.5646 -0.003115  0.1188    2.6834   
     9. B(Br  8,H   3)                3.2992 -0.001812  0.1034    3.4026   
    10. A(C   1,C   0,H   5)          112.72  0.000199   -0.19    112.54   
    11. A(H   3,C   0,H   4)          106.80  0.000130   -0.02    106.78   
    12. A(H   3,C   0,H   5)          109.22 -0.000400   -0.06    109.16   
    13. A(H   4,C   0,H   5)          109.02  0.000096   -0.06    108.96   
    14. A(C   1,C   0,H   4)          110.96 -0.000346    0.08    111.04   
    15. A(C   1,C   0,H   3)          107.93  0.000316    0.25    108.19   
    16. A(C   0,C   1,Br  2)          111.57  0.000011   -0.08    111.49   
    17. A(H   6,C   1,H   7)          110.30  0.000055   -0.07    110.23   
    18. A(Br  2,C   1,H   7)          106.79 -0.000182   -0.09    106.71   
    19. A(C   0,C   1,H   7)          110.18  0.000254    0.26    110.44   
    20. A(Br  2,C   1,H   6)          104.60 -0.000035   -0.01    104.59   
    21. A(C   0,C   1,H   6)          113.10 -0.000125   -0.04    113.05   
    22. A(C   0,H   3,Br  8)          100.89 -0.000815    0.90    101.79   
    23. A(C   1,H   7,Br  8)          141.59 -0.000185    0.34    141.94   
    24. A(H   3,Br  8,H   7)           47.46  0.000478   -1.64     45.82   
    25. D(Br  2,C   1,C   0,H   5)     60.97 -0.000128    0.09     61.06   
    26. D(H   6,C   1,C   0,H   3)     64.08 -0.000170    0.16     64.24   
    27. D(Br  2,C   1,C   0,H   3)   -178.32 -0.000290    0.07   -178.26   
    28. D(H   6,C   1,C   0,H   5)    -56.62 -0.000008    0.18    -56.44   
    29. D(H   7,C   1,C   0,H   3)    -59.88 -0.000345    0.08    -59.80   
    30. D(H   7,C   1,C   0,H   4)     56.82 -0.000194    0.25     57.07   
    31. D(Br  2,C   1,C   0,H   4)    -61.63 -0.000139    0.23    -61.39   
    32. D(H   7,C   1,C   0,H   5)    179.42 -0.000183    0.10    179.52   
    33. D(H   6,C   1,C   0,H   4)   -179.22 -0.000019    0.33   -178.89   
    34. D(Br  8,H   3,C   0,H   5)    179.38 -0.000117    0.29    179.67   
    35. D(Br  8,H   3,C   0,H   4)    -62.86 -0.000143    0.18    -62.68   
    36. D(Br  8,H   3,C   0,C   1)     56.50 -0.000313    0.40     56.90   
    37. D(Br  8,H   7,C   1,H   6)   -105.76 -0.000168   -0.01   -105.77   
    38. D(Br  8,H   7,C   1,Br  2)    141.14 -0.000058    0.08    141.22   
    39. D(Br  8,H   7,C   1,C   0)     19.80 -0.000106    0.07     19.87   
    40. D(H   3,Br  8,H   7,C   1)      4.85  0.000011   -0.15      4.71   
    41. D(H   7,Br  8,H   3,C   0)    -36.89  0.000080    0.19    -36.70   
    ----------------------------------------------------------------------------

         *************************************************************
         *                GEOMETRY OPTIMIZATION CYCLE   2            *
         *************************************************************
---------------------------------
CARTESIAN COORDINATES (ANGSTROEM)
---------------------------------
  C     -1.720022   -0.426412   -0.576145
  C     -0.233589   -0.646529   -0.508337
  Br     0.759940    0.961642   -1.059694
  H     -2.220225   -1.345766   -0.227487
  H     -2.030772    0.380792    0.102342
  H     -2.065534   -0.190958   -1.593776
  H      0.115632   -1.433437   -1.187894
  H      0.075414   -0.871139    0.526290
  Br    -0.888283   -1.725303    2.880591

----------------------------
CARTESIAN COORDINATES (A.U.)
----------------------------
  NO LB      ZA    FRAG     MASS         X           Y           Z
   0 C     6.0000    0    12.011   -3.250370   -0.805802   -1.088757
   1 C     6.0000    0    12.011   -0.441419   -1.221763   -0.960618
   2 Br   35.0000    0    79.900    1.436078    1.817239   -2.002531
   3 H     1.0000    0     1.008   -4.195618   -2.543129   -0.429888
   4 H     1.0000    0     1.008   -3.837603    0.719593    0.193397
   5 H     1.0000    0     1.008   -3.903294   -0.360857   -3.011800
   6 H     1.0000    0     1.008    0.218513   -2.708804   -2.244794
   7 H     1.0000    0     1.008    0.142512   -1.646215    0.994545
   8 Br   35.0000    0    79.900   -1.678611   -3.260349    5.443528

--------------------------------
INTERNAL COORDINATES (ANGSTROEM)
--------------------------------
 C      0   0   0     0.000000000000     0.00000000     0.00000000
 C      1   0   0     1.504171513409     0.00000000     0.00000000
 Br     2   1   0     1.969088211446   111.49835990     0.00000000
 H      1   2   3     1.103167033338   108.17229761   181.74855533
 H      1   2   3     1.099312906038   111.03714885   298.60751223
 H      1   2   3     1.100177304984   112.54222624    61.06073651
 H      2   1   3     1.096802975377   113.06059170   242.49468726
 H      2   1   3     1.102899061490   110.42379434   118.46012328
 Br     8   2   1     2.683474861697   141.92755124    19.87520038

---------------------------
INTERNAL COORDINATES (A.U.)
---------------------------
 C      0   0   0     0.000000000000     0.00000000     0.00000000
 C      1   0   0     2.842472218790     0.00000000     0.00000000
 Br     2   1   0     3.721037453166   111.49835990     0.00000000
 H      1   2   3     2.084683572979   108.17229761   181.74855533
 H      1   2   3     2.077400327898   111.03714885   298.60751223
 H      1   2   3     2.079033805176   112.54222624    61.06073651
 H      2   1   3     2.072657246332   113.06059170   242.49468726
 H      2   1   3     2.084177179574   110.42379434   118.46012328
 Br     8   2   1     5.071032575869   141.92755124    19.87520038

[1631282520.517937] [comp0805:33616:0]            sys.c:618  UCX  ERROR shmget(size=2097152 flags=0xfb0) for mm_recv_desc failed: Operation not permitted, please check shared memory limits by 'ipcs -l'
[1631282520.525626] [comp0805:33618:0]            sys.c:618  UCX  ERROR shmget(size=2097152 flags=0xfb0) for mm_recv_desc failed: Operation not permitted, please check shared memory limits by 'ipcs -l'
[1631282520.532516] [comp0805:33619:0]            sys.c:618  UCX  ERROR shmget(size=2097152 flags=0xfb0) for mm_recv_desc failed: Operation not permitted, please check shared memory limits by 'ipcs -l'
[1631282520.549177] [comp0805:33617:0]            sys.c:618  UCX  ERROR shmget(size=2097152 flags=0xfb0) for mm_recv_desc failed: Operation not permitted, please check shared memory limits by 'ipcs -l'
[1631282520.556842] [comp0805:33616:0]            sys.c:618  UCX  ERROR shmget(size=2097152 flags=0xb80) for ucp_am_bufs failed: Operation not permitted, please check shared memory limits by 'ipcs -l'
[1631282520.557440] [comp0805:33617:0]            sys.c:618  UCX  ERROR shmget(size=2097152 flags=0xb80) for ucp_am_bufs failed: Operation not permitted, please check shared memory limits by 'ipcs -l'


           ************************************************************
           *        Program running with 4 parallel MPI-processes     *
           *              working on a common directory               *
           ************************************************************
 One Electron integrals                  [1631282520.608901] [comp0805:33619:0]            sys.c:618  UCX  ERROR shmget(size=2097152 flags=0xb80) for ucp_am_bufs failed: Operation not permitted, please check shared memory limits by 'ipcs -l'
[1631282520.608961] [comp0805:33618:0]            sys.c:618  UCX  ERROR shmget(size=2097152 flags=0xb80) for ucp_am_bufs failed: Operation not permitted, please check shared memory limits by 'ipcs -l'
... done
 Pre-screening matrix                    ... done
[1631282521.647730] [comp0805:33641:0]            sys.c:618  UCX  ERROR shmget(size=2097152 flags=0xfb0) for mm_recv_desc failed: Operation not permitted, please check shared memory limits by 'ipcs -l'
[1631282521.655555] [comp0805:33639:0]            sys.c:618  UCX  ERROR shmget(size=2097152 flags=0xfb0) for mm_recv_desc failed: Operation not permitted, please check shared memory limits by 'ipcs -l'
[1631282521.686824] [comp0805:33642:0]            sys.c:618  UCX  ERROR shmget(size=2097152 flags=0xfb0) for mm_recv_desc failed: Operation not permitted, please check shared memory limits by 'ipcs -l'
[1631282521.687330] [comp0805:33640:0]            sys.c:618  UCX  ERROR shmget(size=2097152 flags=0xfb0) for mm_recv_desc failed: Operation not permitted, please check shared memory limits by 'ipcs -l'
[1631282521.695425] [comp0805:33641:0]            sys.c:618  UCX  ERROR shmget(size=2097152 flags=0xb80) for ucp_am_bufs failed: Operation not permitted, please check shared memory limits by 'ipcs -l'
[1631282521.695423] [comp0805:33639:0]            sys.c:618  UCX  ERROR shmget(size=2097152 flags=0xb80) for ucp_am_bufs failed: Operation not permitted, please check shared memory limits by 'ipcs -l'


           ************************************************************
           *        Program running with 4 parallel MPI-processes     *
           *              working on a common directory               *
           ************************************************************
[1631282521.697967] [comp0805:33640:0]            sys.c:618  UCX  ERROR shmget(size=2097152 flags=0xb80) for ucp_am_bufs failed: Operation not permitted, please check shared memory limits by 'ipcs -l'
[1631282521.699043] [comp0805:33642:0]            sys.c:618  UCX  ERROR shmget(size=2097152 flags=0xb80) for ucp_am_bufs failed: Operation not permitted, please check shared memory limits by 'ipcs -l'

Diagonalization of the overlap matrix:
Smallest eigenvalue                        ... 3.679e-03
Time for diagonalization                   ...    0.003 sec
Threshold for overlap eigenvalues          ... 1.000e-08
Number of eigenvalues below threshold      ... 0
Time for construction of square roots      ...    0.001 sec
Total time needed                          ...    0.004 sec

-------------------
DFT GRID GENERATION
-------------------

General Integration Accuracy     IntAcc      ...  4.340
Radial Grid Type                 RadialGrid  ... Gauss-Chebyshev
Angular Grid (max. acc.)         AngularGrid ... Lebedev-110
Angular grid pruning method      GridPruning ... 3 (G Style)
Weight generation scheme         WeightScheme... Becke
Basis function cutoff            BFCut       ...    1.0000e-11
Integration weight cutoff        WCut        ...    1.0000e-14
Grids for H and He will be reduced by one unit

# of grid points (after initial pruning)     ...  13062 (   0.0 sec)
# of grid points (after weights+screening)   ...  12637 (   0.0 sec)
nearest neighbour list constructed           ...    0.0 sec
Grid point re-assignment to atoms done       ...    0.0 sec
Grid point division into batches done        ...    0.0 sec
Reduced shell lists constructed in    0.0 sec

Total number of grid points                  ...    12637
Total number of batches                      ...      202
Average number of points per batch           ...       62
Average number of grid points per atom       ...     1404
Average number of shells per batch           ...    34.79 (68.21%)
Average number of basis functions per batch  ...    76.75 (65.60%)
Average number of large shells per batch     ...    29.48 (84.74%)
Average number of large basis fcns per batch ...    63.63 (82.91%)
Maximum spatial batch extension              ...  19.21, 15.71, 17.34 au
Average spatial batch extension              ...   0.97,  0.83,  0.85 au

Time for grid setup =    0.069 sec

--------------------
COSX GRID GENERATION
--------------------

General Integration Accuracy     IntAcc      ...  3.340
Radial Grid Type                 RadialGrid  ... Gauss-Chebyshev
Angular Grid (max. acc.)         AngularGrid ... Lebedev-50
Angular grid pruning method      GridPruning ... 3 (G Style)
Weight generation scheme         WeightScheme... Becke
Basis function cutoff            BFCut       ...    1.0000e-11
Integration weight cutoff        WCut        ...    1.0000e-14
Grids for H and He will be reduced by one unit

# of grid points (after initial pruning)     ...   4844 (   0.0 sec)
# of grid points (after weights+screening)   ...   4699 (   0.0 sec)
nearest neighbour list constructed           ...    0.0 sec
Grid point re-assignment to atoms done       ...    0.0 sec
Grid point division into batches done        ...    0.0 sec
Reduced shell lists constructed in    0.0 sec

Total number of grid points                  ...     4699
Total number of batches                      ...       76
Average number of points per batch           ...       61
Average number of grid points per atom       ...      522
Average number of shells per batch           ...    36.50 (71.57%)
Average number of basis functions per batch  ...    81.40 (69.57%)
Average number of large shells per batch     ...    31.70 (86.85%)
Average number of large basis fcns per batch ...    69.00 (84.77%)
Maximum spatial batch extension              ...  13.37, 14.82, 21.29 au
Average spatial batch extension              ...   1.17,  1.11,  1.33 au

Overlap Fitting                  UseSFitting ... on
Constructing numerical overlap ... done (      0.0 sec)
Inverting numerical overlap    ... done (      0.0 sec)
Obtaining analytic overlap     ... done (      0.0 sec)
Final contraction and storage  ... done (      0.0 sec)


General Integration Accuracy     IntAcc      ...  3.670
Radial Grid Type                 RadialGrid  ... Gauss-Chebyshev
Angular Grid (max. acc.)         AngularGrid ... Lebedev-50
Angular grid pruning method      GridPruning ... 3 (G Style)
Weight generation scheme         WeightScheme... Becke
Basis function cutoff            BFCut       ...    1.0000e-11
Integration weight cutoff        WCut        ...    1.0000e-14
Grids for H and He will be reduced by one unit

# of grid points (after initial pruning)     ...   6004 (   0.0 sec)
# of grid points (after weights+screening)   ...   5813 (   0.0 sec)
nearest neighbour list constructed           ...    0.0 sec
Grid point re-assignment to atoms done       ...    0.0 sec
Grid point division into batches done        ...    0.0 sec
Reduced shell lists constructed in    0.0 sec

Total number of grid points                  ...     5813
Total number of batches                      ...       95
Average number of points per batch           ...       61
Average number of grid points per atom       ...      646
Average number of shells per batch           ...    36.04 (70.67%)
Average number of basis functions per batch  ...    80.12 (68.48%)
[...]
Free-energy (cav+disp)  :            0.00383975 Eh               0.10449 eV
Corrected G(solv)       :        -5226.33199500 Eh         -142215.72369 eV

---------------
SCF CONVERGENCE
---------------

  Last Energy change         ...    3.0880e-08  Tolerance :   1.0000e-08
  Last MAX-Density change    ...    3.9968e-15  Tolerance :   1.0000e-07
  Last RMS-Density change    ...    1.0602e-16  Tolerance :   5.0000e-09
  Last Orbital Gradient      ...    1.1447e-06  Tolerance :   1.0000e-05
  Last Orbital Rotation      ...    2.5082e-06  Tolerance :   1.0000e-05

             **** THE GBW FILE WAS UPDATED (manual_reactants_328.gbw) ****
             **** DENSITY FILE WAS UPDATED (manual_reactants_328.scfp) ****
             **** ENERGY FILE WAS UPDATED (manual_reactants_328.en.tmp) ****
             **** THE GBW FILE WAS UPDATED (manual_reactants_328.gbw) ****
             **** DENSITY FILE WAS UPDATED (manual_reactants_328.scfp) ****
----------------
ORBITAL ENERGIES
----------------

  NO   OCC          E(Eh)            E(eV) 
   0   2.0000    -483.171051    -13147.7527 
   1   2.0000    -483.063681    -13144.8310 
   2   2.0000     -62.607425     -1703.6347 
   3   2.0000     -62.498827     -1700.6795 
   4   2.0000     -56.396602     -1534.6296 
   5   2.0000     -56.394359     -1534.5685 
   6   2.0000     -56.394203     -1534.5643 
   7   2.0000     -56.286807     -1531.6419 
   8   2.0000     -56.286748     -1531.6403 
   9   2.0000     -56.286402     -1531.6309 
  10   2.0000     -10.272835      -279.5381 
  11   2.0000     -10.224659      -278.2271 
  12   2.0000      -8.752744      -238.1743 
  13   2.0000      -8.642281      -235.1684 
  14   2.0000      -6.566928      -178.6952 
  15   2.0000      -6.554950      -178.3693 
  16   2.0000      -6.554901      -178.3679 
  17   2.0000      -6.448797      -175.4807 
  18   2.0000      -6.448499      -175.4726 
  19   2.0000      -6.448457      -175.4714 
  20   2.0000      -2.652425       -72.1762 
  21   2.0000      -2.649260       -72.0900 
  22   2.0000      -2.649131       -72.0865 
  23   2.0000      -2.639413       -71.8221 
  24   2.0000      -2.639404       -71.8218 
  25   2.0000      -2.535573       -68.9965 
  26   2.0000      -2.535541       -68.9956 
  27   2.0000      -2.535519       -68.9950 
  28   2.0000      -2.535296       -68.9889 
  29   2.0000      -2.535289       -68.9887 
  30   2.0000      -0.824464       -22.4348 
  31   2.0000      -0.732934       -19.9441 
  32   2.0000      -0.651396       -17.7254 
  33   2.0000      -0.610280       -16.6066 
  34   2.0000      -0.468260       -12.7420 
  35   2.0000      -0.441050       -12.0016 
  36   2.0000      -0.403807       -10.9882 
  37   2.0000      -0.365889        -9.9563 
  38   2.0000      -0.350003        -9.5241 
  39   2.0000      -0.282911        -7.6984 
  40   2.0000      -0.281114        -7.6495 
  41   2.0000      -0.214257        -5.8302 
  42   2.0000      -0.214133        -5.8269 
  43   2.0000      -0.213449        -5.8082 
  44   0.0000       0.022886         0.6228 
  45   0.0000       0.097129         2.6430 
  46   0.0000       0.132153         3.5961 
  47   0.0000       0.142662         3.8820 
  48   0.0000       0.159699         4.3456 
  49   0.0000       0.176783         4.8105 
  50   0.0000       0.228692         6.2230 
  51   0.0000       0.342172         9.3110 
  52   0.0000       0.381276        10.3750 
  53   0.0000       0.411649        11.2016 
  54   0.0000       0.433669        11.8007 
  55   0.0000       0.463898        12.6233 
  56   0.0000       0.472749        12.8642 
  57   0.0000       0.484956        13.1963 
  58   0.0000       0.561192        15.2708 
  59   0.0000       0.564099        15.3499 
  60   0.0000       0.595803        16.2126 
  61   0.0000       0.609459        16.5842 
  62   0.0000       0.614301        16.7160 
  63   0.0000       0.629393        17.1267 
  64   0.0000       0.633958        17.2509 
  65   0.0000       0.635222        17.2853 
  66   0.0000       0.635795        17.3009 
  67   0.0000       0.639814        17.4102 
  68   0.0000       0.659877        17.9562 
  69   0.0000       0.676098        18.3975 
  70   0.0000       0.694308        18.8931 
  71   0.0000       0.701422        19.0867 
  72   0.0000       0.707268        19.2457 
  73   0.0000       0.718991        19.5647 
  74   0.0000       0.728041        19.8110 
  75   0.0000       0.752888        20.4871 
  76   0.0000       0.788221        21.4486 
  77   0.0000       0.790780        21.5182 
  78   0.0000       0.801610        21.8129 
  79   0.0000       0.898516        24.4499 
  80   0.0000       1.016534        27.6613 
  81   0.0000       1.061795        28.8929 
  82   0.0000       1.189631        32.3715 
  83   0.0000       1.233881        33.5756 
  84   0.0000       1.368972        37.2516 
  85   0.0000       1.548982        42.1499 
  86   0.0000       1.559212        42.4283 
  87   0.0000       1.735993        47.2388 
  88   0.0000       1.773017        48.2463 
  89   0.0000       1.778375        48.3920 
  90   0.0000       1.807127        49.1744 
  91   0.0000       1.839194        50.0470 
  92   0.0000       1.862741        50.6878 
  93   0.0000       1.887678        51.3663 
  94   0.0000       1.969242        53.5858 
  95   0.0000       2.073000        56.4092 
  96   0.0000       2.180623        59.3378 
  97   0.0000       2.266867        61.6846 
  98   0.0000       2.369872        64.4875 
  99   0.0000       2.449478        66.6537 
 100   0.0000       2.512578        68.3707 
 101   0.0000       2.577594        70.1399 
 102   0.0000       2.756660        75.0125 
 103   0.0000       2.866086        77.9902 
 104   0.0000       2.969652        80.8084 
 105   0.0000       2.986488        81.2665 
 106   0.0000       3.026313        82.3501 
 107   0.0000       3.475423        94.5711 
 108   0.0000       3.494379        95.0869 
 109   0.0000       3.562488        96.9402 
 110   0.0000       3.562872        96.9507 
 111   0.0000       3.563939        96.9797 
 112   0.0000       3.567392        97.0737 
 113   0.0000       3.582650        97.4889 
 114   0.0000       3.584944        97.5513 
 115   0.0000       3.602005        98.0155 
 116   0.0000       3.801755       103.4510 

                    ********************************
                    * MULLIKEN POPULATION ANALYSIS *
                    ********************************

-----------------------
MULLIKEN ATOMIC CHARGES
-----------------------
   0 C :   -0.068034
   1 C :   -0.128504
   2 Br:   -0.222915
   3 H :    0.060905
   4 H :    0.055857
   5 H :    0.056431
   6 H :    0.105630
   7 H :    0.078261
   8 Br:   -0.937631
Sum of atomic charges:   -1.0000000

--------------------------------
MULLIKEN REDUCED ORBITAL CHARGES
--------------------------------
  0 C s       :     3.045390  s :     3.045390
      pz      :     1.032609  p :     2.995203
      px      :     0.922106
      py      :     1.040487
      dz2     :     0.005508  d :     0.027441
      dxz     :     0.005100
      dyz     :     0.005213
      dx2y2   :     0.006231
      dxy     :     0.005390
  1 C s       :     3.168370  s :     3.168370
      pz      :     1.085651  p :     2.923712
      px      :     0.969307
      py      :     0.868754
      dz2     :     0.006221  d :     0.036422
      dxz     :     0.006743
      dyz     :     0.006565
      dx2y2   :     0.007583
      dxy     :     0.009309
  2 Brs       :     7.971642  s :     7.971642
      pz      :     5.942709  p :    17.208862
      px      :     5.797848
      py      :     5.468305
      dz2     :     2.005897  d :    10.042411
      dxz     :     2.002759
      dyz     :     2.009185
      dx2y2   :     2.010368
      dxy     :     2.014202
  3 H s       :     0.914775  s :     0.914775
      pz      :     0.005721  p :     0.024320
      px      :     0.006429
      py      :     0.012170
  4 H s       :     0.920262  s :     0.920262
      pz      :     0.009445  p :     0.023882
      px      :     0.004652
      py      :     0.009785
  5 H s       :     0.919874  s :     0.919874
      pz      :     0.013160  p :     0.023695
      px      :     0.004779
      py      :     0.005755
  6 H s       :     0.871450  s :     0.871450
      pz      :     0.009399  p :     0.022920
      px      :     0.004642
      py      :     0.008879
  7 H s       :     0.897495  s :     0.897495
      pz      :     0.015795  p :     0.024244
      px      :     0.004302
      py      :     0.004147
  8 Brs       :     7.997696  s :     7.997696
      pz      :     5.957980  p :    17.939612
      px      :     5.987685
      py      :     5.993948
      dz2     :     2.000161  d :    10.000323
      dxz     :     2.000102
      dyz     :     2.000048
      dx2y2   :     2.000002
      dxy     :     2.000010


                     *******************************
                     * LOEWDIN POPULATION ANALYSIS *
                     *******************************

----------------------
LOEWDIN ATOMIC CHARGES
----------------------
   0 C :   -0.087553
   1 C :   -0.082602
   2 Br:   -0.049602
   3 H :    0.042272
   4 H :    0.032625
   5 H :    0.032402
   6 H :    0.038387
   7 H :    0.015760
   8 Br:   -0.941689

-------------------------------
LOEWDIN REDUCED ORBITAL CHARGES
-------------------------------
  0 C s       :     2.848441  s :     2.848441
      pz      :     1.075369  p :     3.167263
      px      :     1.014864
      py      :     1.077030
      dz2     :     0.015095  d :     0.071850
      dxz     :     0.011724
      dyz     :     0.013783
      dx2y2   :     0.017869
      dxy     :     0.013378
  1 C s       :     2.913170  s :     2.913170
      pz      :     1.108647  p :     3.085517
      px      :     1.034576
      py      :     0.942294
      dz2     :     0.015893  d :     0.083914
      dxz     :     0.013633
      dyz     :     0.016035
      dx2y2   :     0.018953
      dxy     :     0.019401
  2 Brs       :     7.830513  s :     7.830513
      pz      :     5.924574  p :    17.166798
      px      :     5.775473
      py      :     5.466750
      dz2     :     2.007171  d :    10.052291
      dxz     :     2.003259
      dyz     :     2.010852
      dx2y2   :     2.012258
      dxy     :     2.018751
  3 H s       :     0.891008  s :     0.891008
      pz      :     0.014449  p :     0.066720
      px      :     0.018642
      py      :     0.033629
  4 H s       :     0.900713  s :     0.900713
      pz      :     0.025840  p :     0.066662
      px      :     0.014329
      py      :     0.026493
  5 H s       :     0.901276  s :     0.901276
      pz      :     0.036497  p :     0.066323
      px      :     0.014798
      py      :     0.015027
  6 H s       :     0.890679  s :     0.890679
      pz      :     0.027112  p :     0.070934
      px      :     0.015400
      py      :     0.028422
  7 H s       :     0.907923  s :     0.907923
      pz      :     0.047466  p :     0.076317
      px      :     0.014676
      py      :     0.014176
  8 Brs       :     7.996496  s :     7.996496
      pz      :     5.959614  p :    17.944851
      px      :     5.990468
      py      :     5.994769
      dz2     :     2.000161  d :    10.000342
      dxz     :     2.000123
      dyz     :     2.000043
      dx2y2   :     2.000003
      dxy     :     2.000012


                      *****************************
                      * MAYER POPULATION ANALYSIS *
                      *****************************

  NA   - Mulliken gross atomic population
  ZA   - Total nuclear charge
  QA   - Mulliken gross atomic charge
  VA   - Mayer's total valence
  BVA  - Mayer's bonded valence
  FA   - Mayer's free valence

  ATOM       NA         ZA         QA         VA         BVA        FA
  0 C      6.0680     6.0000    -0.0680     3.9439     3.9439    -0.0000
  1 C      6.1285     6.0000    -0.1285     3.9197     3.9197     0.0000
  2 Br    35.2229    35.0000    -0.2229     0.9983     0.9983    -0.0000
  3 H      0.9391     1.0000     0.0609     0.9985     0.9985    -0.0000
  4 H      0.9441     1.0000     0.0559     0.9987     0.9987    -0.0000
  5 H      0.9436     1.0000     0.0564     0.9877     0.9877    -0.0000
  6 H      0.8944     1.0000     0.1056     0.9620     0.9620     0.0000
  7 H      0.9217     1.0000     0.0783     1.0450     1.0450     0.0000
  8 Br    35.9376    35.0000    -0.9376     0.1261     0.1261    -0.0000

  Mayer bond orders larger than 0.100000
B(  0-C ,  1-C ) :   1.0728 B(  0-C ,  3-H ) :   0.9525 B(  0-C ,  4-H ) :   0.9699 
B(  0-C ,  5-H ) :   0.9702 B(  1-C ,  2-Br) :   0.9652 B(  1-C ,  6-H ) :   0.9512 
B(  1-C ,  7-H ) :   0.9269 B(  7-H ,  8-Br) :   0.1087 


------------------
HIRSHFELD ANALYSIS
------------------

Total integrated alpha density =     43.998283084
Total integrated beta density  =     43.998283084

  ATOM     CHARGE      SPIN    
   0 C   -0.075612    0.000000
   1 C    0.009099    0.000000
   2 Br  -0.169603    0.000000
   3 H    0.036631    0.000000
   4 H    0.028013    0.000000
   5 H    0.030009    0.000000
   6 H    0.044850    0.000000
   7 H    0.016782    0.000000
   8 Br  -0.916735    0.000000

  TOTAL  -0.996566    0.000000

-------
TIMINGS
-------

Total SCF time: 0 days 0 hours 0 min 4 sec 

Total time                  ....       4.468 sec
Sum of individual times     ....       4.216 sec  ( 94.4%)

Fock matrix formation       ....       3.629 sec  ( 81.2%)
  Split-RI-J                ....       0.593 sec  ( 16.3% of F)
  Chain of spheres X        ....       1.794 sec  ( 49.4% of F)
  COS-X 1 center corr.      ....       0.000 sec  (  0.0% of F)
  XC integration            ....       0.172 sec  (  4.7% of F)
    Basis function eval.    ....       0.067 sec  ( 38.8% of XC)
    Density eval.           ....       0.027 sec  ( 15.5% of XC)
    XC-Functional eval.     ....       0.019 sec  ( 11.2% of XC)
    XC-Potential eval.      ....       0.037 sec  ( 21.8% of XC)
Diagonalization             ....       0.002 sec  (  0.0%)
Density matrix formation    ....       0.001 sec  (  0.0%)
Population analysis         ....       0.045 sec  (  1.0%)
Initial guess               ....       0.006 sec  (  0.1%)
Orbital Transformation      ....       0.000 sec  (  0.0%)
Orbital Orthonormalization  ....       0.003 sec  (  0.1%)
DIIS solution               ....       0.000 sec  (  0.0%)
SOSCF solution              ....       0.004 sec  (  0.1%)
Grid generation             ....       0.530 sec  ( 11.9%)


-------------------------------------------------------------------------------
                          DFT DISPERSION CORRECTION                            
                                                                               
                              DFTD3 V3.1  Rev 1                                
                          USING Becke-Johnson damping                          
-------------------------------------------------------------------------------
The PBE0 functional is recognized
Active option DFTDOPT                   ...         4   

molecular C6(AA) [au] = 1867.798140 


            DFT-D V3
 parameters
 s6 scaling factor         :     1.0000 
 a1 scaling factor         :     0.4145 
 s8 scaling factor         :     1.2177 
 a2 scaling factor         :     4.8593 
 ad hoc parameters k1-k3   :    16.0000     1.3333    -4.0000 

 Edisp/kcal,au: -3.725053130414  -0.005936249391 
 E6   /kcal   :  -2.212336232 
 E8   /kcal   :  -1.512716898 
 % E8         :  40.609270396 

-------------------------   ----------------
Dispersion correction           -0.005936249
-------------------------   ----------------


-------------------------   --------------------
FINAL SINGLE POINT ENERGY     -5226.339005827924
-------------------------   --------------------

                                *** OPTIMIZATION RUN DONE ***

                            ***************************************
                            *     ORCA property calculations      *
                            ***************************************

                                    ---------------------
                                    Active property flags
                                    ---------------------
   (+) Dipole Moment


------------------------------------------------------------------------------
                       ORCA ELECTRIC PROPERTIES CALCULATION
------------------------------------------------------------------------------

Dipole Moment Calculation                       ... on
Quadrupole Moment Calculation                   ... off
Polarizability Calculation                      ... off
GBWName                                         ... manual_reactants_328.gbw
Electron density file                           ... manual_reactants_328.scfp
The origin for moment calculation is the CENTER OF MASS  = (-0.398512, -0.726219  1.506252)

-------------
DIPOLE MOMENT
-------------
                                X             Y             Z
Electronic contribution:      8.11809       3.59337       6.95617
Nuclear contribution   :     -7.49267      -2.12073     -10.75924
                        -----------------------------------------
Total Dipole Moment    :      0.62542       1.47264      -3.80307
                        -----------------------------------------
Magnitude (a.u.)       :      4.12592
Magnitude (Debye)      :     10.48724



--------------------
Rotational spectrum 
--------------------
 
Rotational constants in cm-1:     0.186780     0.015329     0.014431 
Rotational constants in MHz :  5599.537532   459.556750   432.621522 

 Dipole components along the rotational axes: 
x,y,z [a.u.] :    -4.020524    -0.872602    -0.311658 
x,y,z [Debye]:   -10.219360    -2.217978    -0.792173 

 
[1631282684.307998] [comp0805:37140:0]            sys.c:618  UCX  ERROR shmget(size=2097152 flags=0xfb0) for mm_recv_desc failed: Operation not permitted, please check shared memory limits by 'ipcs -l'
[1631282684.310050] [comp0805:37142:0]            sys.c:618  UCX  ERROR shmget(size=2097152 flags=0xfb0) for mm_recv_desc failed: Operation not permitted, please check shared memory limits by 'ipcs -l'
[1631282684.318488] [comp0805:37143:0]            sys.c:618  UCX  ERROR shmget(size=2097152 flags=0xfb0) for mm_recv_desc failed: Operation not permitted, please check shared memory limits by 'ipcs -l'
[1631282684.330562] [comp0805:37141:0]            sys.c:618  UCX  ERROR shmget(size=2097152 flags=0xfb0) for mm_recv_desc failed: Operation not permitted, please check shared memory limits by 'ipcs -l'
[1631282684.338682] [comp0805:37142:0]            sys.c:618  UCX  ERROR shmget(size=2097152 flags=0xb80) for ucp_am_bufs failed: Operation not permitted, please check shared memory limits by 'ipcs -l'
[1631282684.339540] [comp0805:37143:0]            sys.c:618  UCX  ERROR shmget(size=2097152 flags=0xb80) for ucp_am_bufs failed: Operation not permitted, please check shared memory limits by 'ipcs -l'
[1631282684.339866] [comp0805:37140:0]            sys.c:618  UCX  ERROR shmget(size=2097152 flags=0xb80) for ucp_am_bufs failed: Operation not permitted, please check shared memory limits by 'ipcs -l'
[1631282684.343029] [comp0805:37141:0]            sys.c:618  UCX  ERROR shmget(size=2097152 flags=0xb80) for ucp_am_bufs failed: Operation not permitted, please check shared memory limits by 'ipcs -l'

Timings for individual modules:

Sum of individual times         ...      177.792 sec (=   2.963 min)
GTO integral calculation        ...       20.262 sec (=   0.338 min)  11.4 %
SCF iterations                  ...      113.519 sec (=   1.892 min)  63.8 %
SCF Gradient evaluation         ...       41.563 sec (=   0.693 min)  23.4 %
Geometry relaxation             ...        2.448 sec (=   0.041 min)   1.4 %
                             ****ORCA TERMINATED NORMALLY****
TOTAL RUN TIME: 0 days 0 hours 3 minutes 1 seconds 116 msec
