
                                 *****************
                                 * O   R   C   A *
                                 *****************

           --- An Ab Initio, DFT and Semiempirical electronic structure package ---

                  #######################################################
                  #                        -***-                        #
                  #          Department of theory and spectroscopy      #
                  #               Directorship: Frank Neese             #
                  #        Max Planck Institute fuer Kohlenforschung    #
                  #                Kaiser Wilhelm Platz 1               #
                  #                 D-45470 Muelheim/Ruhr               #
                  #                      Germany                        #
                  #                                                     #
                  #                  All rights reserved                #
                  #                        -***-                        #
                  #######################################################


                         Program Version 4.2.1 -  RELEASE  -


 With contributions from (in alphabetic order):
   Daniel Aravena         : Magnetic Suceptibility
   Michael Atanasov       : Ab Initio Ligand Field Theory (pilot matlab implementation)
   Alexander A. Auer      : GIAO ZORA, VPT2
   Ute Becker             : Parallelization
   Giovanni Bistoni       : ED, misc. LED, open-shell LED, HFLD
   Martin Brehm           : Molecular dynamics
   Dmytro Bykov           : SCF Hessian
   Vijay G. Chilkuri      : MRCI spin determinant printing, contributions to CSF-ICE
   Dipayan Datta          : RHF DLPNO-CCSD density
   Achintya Kumar Dutta   : EOM-CC, STEOM-CC
   Dmitry Ganyushin       : Spin-Orbit,Spin-Spin,Magnetic field MRCI
   Miquel Garcia          : C-PCM Hessian, Gaussian charge scheme
   Yang Guo               : DLPNO-NEVPT2, CIM, IAO-localization
   Andreas Hansen         : Spin unrestricted coupled pair/coupled cluster methods
   Benjamin Helmich-Paris : CASSCF linear response (MC-RPA)
   Lee Huntington         : MR-EOM, pCC
   Robert Izsak           : Overlap fitted RIJCOSX, COSX-SCS-MP3, EOM
   Christian Kollmar      : KDIIS, OOCD, Brueckner-CCSD(T), CCSD density
   Simone Kossmann        : Meta GGA functionals, TD-DFT gradient, OOMP2, MP2 Hessian
   Martin Krupicka        : AUTO-CI
   Lucas Lang             : DCDCAS
   Dagmar Lenk            : GEPOL surface, SMD
   Dimitrios Liakos       : Extrapolation schemes; Compound Job, initial MDCI parallelization
   Dimitrios Manganas     : Further ROCIS development; embedding schemes
   Dimitrios Pantazis     : SARC Basis sets
   Taras Petrenko         : DFT Hessian,TD-DFT gradient, ASA, ECA, R-Raman, ABS, FL, XAS/XES, NRVS
   Peter Pinski           : DLPNO-MP2, DLPNO-MP2 Gradient
   Christoph Reimann      : Effective Core Potentials
   Marius Retegan         : Local ZFS, SOC
   Christoph Riplinger    : Optimizer, TS searches, QM/MM, DLPNO-CCSD(T), (RO)-DLPNO pert. Triples
   Tobias Risthaus        : Range-separated hybrids, TD-DFT gradient, RPA, STAB
   Michael Roemelt        : Original ROCIS implementation
   Masaaki Saitow         : Open-shell DLPNO-CCSD energy and density
   Barbara Sandhoefer     : DKH picture change effects
   Avijit Sen             : IP-ROCIS
   Kantharuban Sivalingam : CASSCF convergence, NEVPT2, FIC-MRCI
   Bernardo de Souza      : ESD, SOC TD-DFT
   Georgi Stoychev        : AutoAux, RI-MP2 NMR
   Willem Van den Heuvel  : Paramagnetic NMR
   Boris Wezisla          : Elementary symmetry handling
   Frank Wennmohs         : Technical directorship


 We gratefully acknowledge several colleagues who have allowed us to
 interface, adapt or use parts of their codes:
   Stefan Grimme, W. Hujo, H. Kruse,             : VdW corrections, initial TS optimization,
                  C. Bannwarth                     DFT functionals, gCP, sTDA/sTD-DF
   Ed Valeev, F. Pavosevic, A. Kumar             : LibInt (2-el integral package), F12 methods
   Garnet Chan, S. Sharma, J. Yang, R. Olivares  : DMRG
   Ulf Ekstrom                                   : XCFun DFT Library
   Mihaly Kallay                                 : mrcc  (arbitrary order and MRCC methods)
   Andreas Klamt, Michael Diedenhofen            : otool_cosmo (COSMO solvation model)
   Jiri Pittner, Ondrej Demel                    : Mk-CCSD
   Frank Weinhold                                : gennbo (NPA and NBO analysis)
   Christopher J. Cramer and Donald G. Truhlar   : smd solvation model
   Lars Goerigk                                  : TD-DFT with DH, B97 family of functionals
   V. Asgeirsson, H. Jonsson                     : NEB implementation
   FAccTs GmbH                                   : IRC, NEB, NEB-TS, Multilevel, MM, QM/MM, CI optimization
   S Lehtola, MJT Oliveira, MAL Marques          : LibXC Library


 Your calculation uses the libint2 library for the computation of 2-el integrals
 For citations please refer to: http://libint.valeyev.net

 Your ORCA version has been built with support for libXC version: 4.2.3
 For citations please refer to: https://tddft.org/programs/libxc/

 This ORCA versions uses:
   CBLAS   interface :  Fast vector & matrix operations
   LAPACKE interface :  Fast linear algebra routines
   SCALAPACK package :  Parallel linear algebra routines


Your calculation utilizes the atom-pairwise dispersion correction
with the Becke-Johnson damping scheme (D3BJ)
Cite in your paper:
S.Grimme, S.Ehrlich, L.Goerigk, J Comput Chem, (2011), 32, 1456–1465 
S.Grimme, J.Antony, S.Ehrlich and H.Krieg, J.Chem.Phys., 132, (2010), 154104 
   

----- Orbital basis set information -----
Your calculation utilizes the basis: def2-SVP
   F. Weigend and R. Ahlrichs, Phys. Chem. Chem. Phys. 7, 3297 (2005).

----- AuxJ basis set information -----
Your calculation utilizes the auxiliary basis: def2/J
   F. Weigend, Phys. Chem. Chem. Phys. 8, 1057 (2006).

================================================================================
                                        WARNINGS
                       Please study these warnings very carefully!
================================================================================


WARNING: Geometry Optimization
  ===> : Switching off AutoStart
         For restart on a previous wavefunction, please use MOREAD

INFO   : the flag for use of LIBINT has been found!

================================================================================
                                       INPUT FILE
================================================================================
NAME = manual_reactants_329.inp
|  1> ! Opt PBE0 RIJCOSX D3BJ def2-SVP def2/J CPCM(Acetone)
|  2> %cpcm
|  3> surfacetype vdw_gaussian
|  4> end
|  5> %geom MaxIter 100 end
|  6> %output 
|  7> xyzfile=True 
|  8> end 
|  9> %scf 
| 10> maxiter 250 
| 11> end
| 12> %output
| 13> Print[P_Hirshfeld] = 1
| 14> end
| 15> % maxcore
| 16> 4000
| 17> %pal nprocs 4
| 18> end
| 19> *xyz -1 1
| 20> C    -2.76174   0.29657   0.67652
| 21> C    -1.75988   0.20079  -0.46559
| 22> C    -0.37659   0.60811  -0.01154
| 23> Br    0.94746   0.31038  -1.42846
| 24> H    -3.74280  -0.09076   0.36143
| 25> H    -2.40460  -0.28480   1.54129
| 26> H    -2.89880   1.33796   1.00925
| 27> H    -1.71994  -0.83672  -0.83623
| 28> H    -2.07518   0.82564  -1.31745
| 29> H    -0.03844   0.01903   0.85706
| 30> H    -0.30906   1.67830   0.22881
| 31> Br   -0.10101  -1.14933   3.09948
| 32> *
| 33> 
| 34>                          ****END OF INPUT****
================================================================================

                       *****************************
                       * Geometry Optimization Run *
                       *****************************

Geometry optimization settings:
Update method            Update   .... BFGS
Choice of coordinates    CoordSys .... Z-matrix Internals
Initial Hessian          InHess   .... Almoef's Model

Convergence Tolerances:
Energy Change            TolE     ....  5.0000e-06 Eh
Max. Gradient            TolMAXG  ....  3.0000e-04 Eh/bohr
RMS Gradient             TolRMSG  ....  1.0000e-04 Eh/bohr
Max. Displacement        TolMAXD  ....  4.0000e-03 bohr
RMS Displacement         TolRMSD  ....  2.0000e-03 bohr
Strict Convergence                ....  False
------------------------------------------------------------------------------
                        ORCA OPTIMIZATION COORDINATE SETUP
------------------------------------------------------------------------------

The optimization will be done in new redundant internal coordinates
Making redundant internal coordinates   ...  (new redundants) done
Evaluating the initial hessian          ...  (Almloef) done
Evaluating the coordinates              ...  done
Calculating the B-matrix                .... done
Calculating the G-matrix                .... done
Diagonalizing the G-matrix              .... done
The first mode is                       ....   29
The number of degrees of freedom        ....   30

    -----------------------------------------------------------------
                    Redundant Internal Coordinates


    -----------------------------------------------------------------
         Definition                    Initial Value    Approx d2E/dq
    -----------------------------------------------------------------
      1. B(C   1,C   0)                  1.5223         0.384332   
      2. B(C   2,C   1)                  1.5118         0.399395   
      3. B(Br  3,C   2)                  1.9620         0.256836   
      4. B(H   4,C   0)                  1.1008         0.346079   
      5. B(H   5,C   0)                  1.1015         0.345166   
      6. B(H   6,C   0)                  1.1018         0.344809   
      7. B(H   7,C   1)                  1.1025         0.344001   
      8. B(H   8,C   1)                  1.1025         0.343932   
      9. B(H   9,C   2)                  1.1026         0.343754   
     10. B(H  10,C   2)                  1.0989         0.348485   
     11. B(Br 11,H   9)                  2.5293         0.006118   
     12. B(Br 11,H   5)                  2.9124         0.001498   
     13. A(H   4,C   0,H   5)          109.1449         0.287125   
     14. A(C   1,C   0,H   5)          110.0242         0.323576   
     15. A(H   4,C   0,H   6)          107.9471         0.287078   
     16. A(C   1,C   0,H   6)          111.5866         0.323521   
     17. A(H   5,C   0,H   6)          107.5836         0.286960   
     18. A(C   1,C   0,H   4)          110.4659         0.323716   
     19. A(H   7,C   1,H   8)          106.4970         0.286694   
     20. A(C   2,C   1,H   8)          109.9398         0.325434   
     21. A(C   0,C   1,H   8)          110.8439         0.323386   
     22. A(C   0,C   1,C   2)          111.0942         0.369329   
     23. A(C   0,C   1,H   7)          109.5904         0.323397   
     24. A(C   2,C   1,H   7)          108.7463         0.325445   
     25. A(Br  3,C   2,H   9)          106.3120         0.321100   
     26. A(C   1,C   2,H   9)          111.9162         0.325407   
     27. A(C   1,C   2,Br  3)          111.0817         0.366627   
     28. A(H   9,C   2,H  10)          109.2165         0.287252   
     29. A(Br  3,C   2,H  10)          105.3231         0.321819   
     30. A(C   1,C   2,H  10)          112.6000         0.326139   
     31. A(C   0,H   5,Br 11)          146.4236         0.153592   
     32. A(C   2,H   9,Br 11)          159.6499         0.177736   
     33. A(H   5,Br 11,H   9)           53.7085         0.117974   
     34. D(H   8,C   1,C   0,H   4)     62.7402         0.011759   
     35. D(H   7,C   1,C   0,H   6)   -174.6101         0.011759   
     36. D(H   7,C   1,C   0,H   4)    -54.5196         0.011759   
     37. D(H   8,C   1,C   0,H   5)   -176.6898         0.011759   
     38. D(H   7,C   1,C   0,H   5)     66.0504         0.011759   
     39. D(C   2,C   1,C   0,H   6)     65.1970         0.011759   
     40. D(C   2,C   1,C   0,H   5)    -54.1425         0.011759   
     41. D(H   8,C   1,C   0,H   6)    -57.3504         0.011759   
     42. D(C   2,C   1,C   0,H   4)   -174.7125         0.011759   
     43. D(H   9,C   2,C   1,H   7)    -65.1636         0.012658   
     44. D(H   9,C   2,C   1,C   0)     55.5285         0.012658   
     45. D(Br  3,C   2,C   1,H   8)    -62.7461         0.012658   
     46. D(Br  3,C   2,C   1,H   7)     53.4930         0.012658   
     47. D(H   9,C   2,C   1,H   8)    178.5973         0.012658   
     48. D(Br  3,C   2,C   1,C   0)    174.1852         0.012658   
     49. D(H  10,C   2,C   1,H   8)     55.1095         0.012658   
     50. D(H  10,C   2,C   1,H   7)    171.3486         0.012658   
     51. D(H  10,C   2,C   1,C   0)    -67.9592         0.012658   
     52. D(Br 11,H   5,C   0,H   6)    -86.2699         0.109600   
     53. D(Br 11,H   5,C   0,H   4)    156.8464         0.109600   
     54. D(Br 11,H   5,C   0,C   1)     35.4836         0.109600   
     55. D(Br 11,H   9,C   2,H  10)     81.0422         0.108518   
     56. D(Br 11,H   9,C   2,Br  3)   -165.7793         0.108518   
     57. D(Br 11,H   9,C   2,C   1)    -44.3316         0.108518   
     58. D(H   5,Br 11,H   9,C   2)     17.2650         0.001503   
     59. D(H   9,Br 11,H   5,C   0)    -10.2462         0.001500   
    -----------------------------------------------------------------

Number of atoms                         .... 12
Number of degrees of freedom            .... 59

         *************************************************************
         *                GEOMETRY OPTIMIZATION CYCLE   1            *
         *************************************************************
---------------------------------
CARTESIAN COORDINATES (ANGSTROEM)
---------------------------------
  C     -2.761740    0.296570    0.676520
  C     -1.759880    0.200790   -0.465590
  C     -0.376590    0.608110   -0.011540
  Br     0.947460    0.310380   -1.428460
  H     -3.742800   -0.090760    0.361430
  H     -2.404600   -0.284800    1.541290
  H     -2.898800    1.337960    1.009250
  H     -1.719940   -0.836720   -0.836230
  H     -2.075180    0.825640   -1.317450
  H     -0.038440    0.019030    0.857060
  H     -0.309060    1.678300    0.228810
  Br    -0.101010   -1.149330    3.099480

----------------------------
CARTESIAN COORDINATES (A.U.)
----------------------------
  NO LB      ZA    FRAG     MASS         X           Y           Z
   0 C     6.0000    0    12.011   -5.218932    0.560436    1.278438
   1 C     6.0000    0    12.011   -3.325691    0.379438   -0.879838
   2 C     6.0000    0    12.011   -0.711652    1.149161   -0.021807
   3 Br   35.0000    0    79.900    1.790440    0.586533   -2.699398
   4 H     1.0000    0     1.008   -7.072867   -0.171512    0.683004
   5 H     1.0000    0     1.008   -4.544035   -0.538194    2.912616
   6 H     1.0000    0     1.008   -5.477938    2.528378    1.907206
   7 H     1.0000    0     1.008   -3.250216   -1.581172   -1.580246
   8 H     1.0000    0     1.008   -3.921522    1.560233   -2.489620
   9 H     1.0000    0     1.008   -0.072641    0.035961    1.619609
  10 H     1.0000    0     1.008   -0.584039    3.171527    0.432388
  11 Br   35.0000    0    79.900   -0.190881   -2.171919    5.857168

--------------------------------
INTERNAL COORDINATES (ANGSTROEM)
--------------------------------
 C      0   0   0     0.000000000000     0.00000000     0.00000000
 C      1   0   0     1.522272157040     0.00000000     0.00000000
 C      2   1   0     1.511807596555   111.09424594     0.00000000
 Br     3   2   1     1.961992314409   111.08167590   174.18518517
 H      1   2   3     1.100811046729   110.46585317   185.28754139
 H      1   2   3     1.101529486396   110.02420905   305.85753194
 H      1   2   3     1.101811158321   111.58656266    65.19698652
 H      2   1   3     1.102450095605   109.59036270   120.19289300
 H      2   1   3     1.102504907971   110.84393043   237.45264129
 H      3   2   1     1.102645286980   111.91620026    55.52852992
 H      3   2   1     1.098924501274   112.60001789   292.04076033
 Br    10   3   2     2.529313652140   159.64993146   315.66836882

---------------------------
INTERNAL COORDINATES (A.U.)
---------------------------
 C      0   0   0     0.000000000000     0.00000000     0.00000000
 C      1   0   0     2.876677478100     0.00000000     0.00000000
 C      2   1   0     2.856902324670   111.09424594     0.00000000
 Br     3   2   1     3.707628151091   111.08167590   174.18518517
 H      1   2   3     2.080231403512   110.46585317   185.28754139
 H      1   2   3     2.081589057728   110.02420905   305.85753194
 H      1   2   3     2.082121340525   111.58656266    65.19698652
 H      2   1   3     2.083328757009   109.59036270   120.19289300
 H      2   1   3     2.083432337369   110.84393043   237.45264129
 H      3   2   1     2.083697615252   111.91620026    55.52852992
 H      3   2   1     2.076666349264   112.60001789   292.04076033
 Br    10   3   2     4.779710109332   159.64993146   315.66836882

---------------------
BASIS SET INFORMATION
---------------------
There are 3 groups of distinct atoms

 Group   1 Type C   : 7s4p1d contracted to 3s2p1d pattern {511/31/1}
 Group   2 Type Br  : 14s10p6d contracted to 5s4p3d pattern {63311/5311/411}
 Group   3 Type H   : 4s1p contracted to 2s1p pattern {31/1}

Atom   0C    basis set group =>   1
Atom   1C    basis set group =>   1
Atom   2C    basis set group =>   1
Atom   3Br   basis set group =>   2
Atom   4H    basis set group =>   3
Atom   5H    basis set group =>   3
Atom   6H    basis set group =>   3
Atom   7H    basis set group =>   3
Atom   8H    basis set group =>   3
Atom   9H    basis set group =>   3
Atom  10H    basis set group =>   3
Atom  11Br   basis set group =>   2
---------------------------------
AUXILIARY/J BASIS SET INFORMATION
---------------------------------
There are 3 groups of distinct atoms

 Group   1 Type C   : 12s5p4d2f1g contracted to 6s4p3d1f1g pattern {711111/2111/211/2/1}
 Group   2 Type Br  : 19s5p5d3f1g contracted to 8s4p3d2f1g pattern {121111111/2111/311/21/1}
 Group   3 Type H   : 5s2p1d contracted to 3s1p1d pattern {311/2/1}

Atom   0C    basis set group =>   1
Atom   1C    basis set group =>   1
Atom   2C    basis set group =>   1
Atom   3Br   basis set group =>   2
Atom   4H    basis set group =>   3
Atom   5H    basis set group =>   3
Atom   6H    basis set group =>   3
Atom   7H    basis set group =>   3
Atom   8H    basis set group =>   3
Atom   9H    basis set group =>   3
Atom  10H    basis set group =>   3
Atom  11Br   basis set group =>   2
[1631282505.864795] [comp0805:33358:0]            sys.c:618  UCX  ERROR shmget(size=2097152 flags=0xfb0) for mm_recv_desc failed: Operation not permitted, please check shared memory limits by 'ipcs -l'
[1631282505.865229] [comp0805:33364:0]            sys.c:618  UCX  ERROR shmget(size=2097152 flags=0xfb0) for mm_recv_desc failed: Operation not permitted, please check shared memory limits by 'ipcs -l'
[1631282505.865698] [comp0805:33361:0]            sys.c:618  UCX  ERROR shmget(size=2097152 flags=0xfb0) for mm_recv_desc failed: Operation not permitted, please check shared memory limits by 'ipcs -l'
[1631282505.866014] [comp0805:33366:0]            sys.c:618  UCX  ERROR shmget(size=2097152 flags=0xfb0) for mm_recv_desc failed: Operation not permitted, please check shared memory limits by 'ipcs -l'
[1631282505.872879] [comp0805:33358:0]            sys.c:618  UCX  ERROR shmget(size=2097152 flags=0xb80) for ucp_am_bufs failed: Operation not permitted, please check shared memory limits by 'ipcs -l'
[1631282505.873470] [comp0805:33364:0]            sys.c:618  UCX  ERROR shmget(size=2097152 flags=0xb80) for ucp_am_bufs failed: Operation not permitted, please check shared memory limits by 'ipcs -l'
[1631282505.879077] [comp0805:33366:0]            sys.c:618  UCX  ERROR shmget(size=2097152 flags=0xb80) for ucp_am_bufs failed: Operation not permitted, please check shared memory limits by 'ipcs -l'
[1631282505.879110] [comp0805:33361:0]            sys.c:618  UCX  ERROR shmget(size=2097152 flags=0xb80) for ucp_am_bufs failed: Operation not permitted, please check shared memory limits by 'ipcs -l'


           ************************************************************
           *        Program running with 4 parallel MPI-processes     *
           *              working on a common directory               *
           ************************************************************
------------------------------------------------------------------------------
                           ORCA GTO INTEGRAL CALCULATION
                           -- RI-GTO INTEGRALS CHOSEN --
------------------------------------------------------------------------------

                         BASIS SET STATISTICS AND STARTUP INFO

Gaussian basis set:
 # of primitive gaussian shells          ...  131
 # of primitive gaussian functions       ...  269
 # of contracted shells                  ...   63
 # of contracted basis functions         ...  141
 Highest angular momentum                ...    2
 Maximum contraction depth               ...    6
Auxiliary gaussian basis set:
 # of primitive gaussian shells          ...  194
 # of primitive gaussian functions       ...  500
 # of contracted shells                  ...  116
 # of contracted aux-basis functions     ...  340
 Highest angular momentum                ...    4
 Maximum contraction depth               ...   12
Ratio of auxiliary to basis functions    ...  2.41
Integral package used                  ... LIBINT
 One Electron integrals                  ... done
 Ordering auxiliary basis shells         ... done
 Integral threshhold             Thresh  ...  2.500e-11
 Primitive cut-off               TCut    ...  2.500e-12
 Pre-screening matrix                    ... done
 Shell pair data                         ... 
 Ordering of the shell pairs             ... done (   0.000 sec) 1785 of 2016 pairs
 Determination of significant pairs      ... done (   0.000 sec)
 Creation of shell pair data             ... done (   0.000 sec)
 Storage of shell pair data              ... done (   0.019 sec)
 Shell pair data done in (   0.019 sec)
 Computing two index integrals           ... done
 Cholesky decomposition of the V-matrix  ... done


Timings:
 Total evaluation time                   ...   0.390 sec (  0.007 min)
 One electron matrix time                ...   0.032 sec (  0.001 min) =  8.2%
 Schwartz matrix evaluation time         ...   0.127 sec (  0.002 min) = 32.4%
 Two index repulsion integral time       ...   0.002 sec (  0.000 min) =  0.6%
 Cholesky decomposition of V             ...   0.180 sec (  0.003 min) = 46.1%
 Three index repulsion integral time     ...   0.000 sec (  0.000 min) =  0.0%

[1631282507.444223] [comp0805:33445:0]            sys.c:618  UCX  ERROR shmget(size=2097152 flags=0xfb0) for mm_recv_desc failed: Operation not permitted, please check shared memory limits by 'ipcs -l'
[1631282507.444499] [comp0805:33449:0]            sys.c:618  UCX  ERROR shmget(size=2097152 flags=0xfb0) for mm_recv_desc failed: Operation not permitted, please check shared memory limits by 'ipcs -l'
[1631282507.444701] [comp0805:33436:0]            sys.c:618  UCX  ERROR shmget(size=2097152 flags=0xfb0) for mm_recv_desc failed: Operation not permitted, please check shared memory limits by 'ipcs -l'
[1631282507.444871] [comp0805:33440:0]            sys.c:618  UCX  ERROR shmget(size=2097152 flags=0xfb0) for mm_recv_desc failed: Operation not permitted, please check shared memory limits by 'ipcs -l'
[1631282507.451318] [comp0805:33436:0]            sys.c:618  UCX  ERROR shmget(size=2097152 flags=0xb80) for ucp_am_bufs failed: Operation not permitted, please check shared memory limits by 'ipcs -l'
[1631282507.452217] [comp0805:33440:0]            sys.c:618  UCX  ERROR shmget(size=2097152 flags=0xb80) for ucp_am_bufs failed: Operation not permitted, please check shared memory limits by 'ipcs -l'


           ************************************************************
           *        Program running with 4 parallel MPI-processes     *
           *              working on a common directory               *
           ************************************************************
[1631282507.458636] [comp0805:33445:0]            sys.c:618  UCX  ERROR shmget(size=2097152 flags=0xb80) for ucp_am_bufs failed: Operation not permitted, please check shared memory limits by 'ipcs -l'
[1631282507.458677] [comp0805:33449:0]            sys.c:618  UCX  ERROR shmget(size=2097152 flags=0xb80) for ucp_am_bufs failed: Operation not permitted, please check shared memory limits by 'ipcs -l'
-------------------------------------------------------------------------------
                                 ORCA SCF
-------------------------------------------------------------------------------

------------
SCF SETTINGS
------------
Hamiltonian:
 Density Functional     Method          .... DFT(GTOs)
 Exchange Functional    Exchange        .... PBE
   PBE kappa parameter   XKappa         ....  0.804000
   PBE mue parameter    XMuePBE         ....  0.219520
 Correlation Functional Correlation     .... PBE
   PBE beta parameter  CBetaPBE         ....  0.066725
 LDA part of GGA corr.  LDAOpt          .... PW91-LDA
 Gradients option       PostSCFGGA      .... off
 Hybrid DFT is turned on
   Fraction HF Exchange ScalHFX         ....  0.250000
   Scaling of DF-GGA-X  ScalDFX         ....  0.750000
   Scaling of DF-GGA-C  ScalDFC         ....  1.000000
   Scaling of DF-LDA-C  ScalLDAC        ....  1.000000
   Perturbative correction              ....  0.000000
   Density functional embedding theory  .... OFF
   NL short-range parameter             ....  6.900000
 RI-approximation to the Coulomb term is turned on
   Number of auxiliary basis functions  .... 340
   RIJ-COSX (HFX calculated with COS-X)).... on


General Settings:
 Integral files         IntName         .... manual_reactants_329
 Hartree-Fock type      HFTyp           .... RHF
 Total Charge           Charge          ....   -1
 Multiplicity           Mult            ....    1
 Number of Electrons    NEL             ....   96
 Basis Dimension        Dim             ....  141
 Nuclear Repulsion      ENuc            ....    490.1384560538 Eh

Convergence Acceleration:
 DIIS                   CNVDIIS         .... on
   Start iteration      DIISMaxIt       ....    12
   Startup error        DIISStart       ....  0.200000
   # of expansion vecs  DIISMaxEq       ....     5
   Bias factor          DIISBfac        ....   1.050
   Max. coefficient     DIISMaxC        ....  10.000
 Newton-Raphson         CNVNR           .... off
 SOSCF                  CNVSOSCF        .... on
   Start iteration      SOSCFMaxIt      ....   150
   Startup grad/error   SOSCFStart      ....  0.003300
 Level Shifting         CNVShift        .... on
   Level shift para.    LevelShift      ....    0.2500
   Turn off err/grad.   ShiftErr        ....    0.0010
 Zerner damping         CNVZerner       .... off
 Static damping         CNVDamp         .... on
   Fraction old density DampFac         ....    0.7000
   Max. Damping (<1)    DampMax         ....    0.9800
   Min. Damping (>=0)   DampMin         ....    0.0000
   Turn off err/grad.   DampErr         ....    0.1000
 Fernandez-Rico         CNVRico         .... off

SCF Procedure:
 Maximum # iterations   MaxIter         ....   250
 SCF integral mode      SCFMode         .... Direct
   Integral package                     .... LIBINT
 Reset frequency        DirectResetFreq ....    20
 Integral Threshold     Thresh          ....  2.500e-11 Eh
 Primitive CutOff       TCut            ....  2.500e-12 Eh

Convergence Tolerance:
 Convergence Check Mode ConvCheckMode   .... Total+1el-Energy
 Convergence forced     ConvForced      .... 0
 Energy Change          TolE            ....  1.000e-08 Eh
 1-El. energy change                    ....  1.000e-05 Eh
 Orbital Gradient       TolG            ....  1.000e-05
 Orbital Rotation angle TolX            ....  1.000e-05
 DIIS Error             TolErr          ....  5.000e-07


Diagonalization of the overlap matrix:
Smallest eigenvalue                        ... 2.319e-03
Time for diagonalization                   ...    0.007 sec
Threshold for overlap eigenvalues          ... 1.000e-08
Number of eigenvalues below threshold      ... 0
Time for construction of square roots      ...    0.002 sec
Total time needed                          ...    0.008 sec

-------------------
DFT GRID GENERATION
-------------------

General Integration Accuracy     IntAcc      ...  4.340
Radial Grid Type                 RadialGrid  ... Gauss-Chebyshev
Angular Grid (max. acc.)         AngularGrid ... Lebedev-110
Angular grid pruning method      GridPruning ... 3 (G Style)
Weight generation scheme         WeightScheme... Becke
Basis function cutoff            BFCut       ...    1.0000e-11
Integration weight cutoff        WCut        ...    1.0000e-14
Grids for H and He will be reduced by one unit

# of grid points (after initial pruning)     ...  16306 (   0.0 sec)
# of grid points (after weights+screening)   ...  15536 (   0.0 sec)
nearest neighbour list constructed           ...    0.0 sec
Grid point re-assignment to atoms done       ...    0.0 sec
Grid point division into batches done        ...    0.0 sec
Reduced shell lists constructed in    0.1 sec

Total number of grid points                  ...    15536
Total number of batches                      ...      250
Average number of points per batch           ...       62
Average number of grid points per atom       ...     1295
Average number of shells per batch           ...    43.86 (69.62%)
Average number of basis functions per batch  ...    93.92 (66.61%)
Average number of large shells per batch     ...    36.80 (83.90%)
Average number of large basis fcns per batch ...    77.11 (82.10%)
Maximum spatial batch extension              ...  18.89, 20.19, 18.24 au
Average spatial batch extension              ...   0.77,  0.78,  0.81 au

Time for grid setup =    0.091 sec

------------------------------
INITIAL GUESS: MODEL POTENTIAL
------------------------------
Loading Hartree-Fock densities                     ... done
Calculating cut-offs                               ... done
Setting up the integral package                    ... done
Initializing the effective Hamiltonian             ... done
Starting the Coulomb interaction                   ... done (   0.0 sec)
Reading the grid                                   ... done
Mapping shells                                     ... done
Starting the XC term evaluation                    ... done (   0.0 sec)
  promolecular density results
     # of electrons  =     94.993021711
     EX              =   -195.915932096
     EC              =     -4.223935278
     EX+EC           =   -200.139867374
Transforming the Hamiltonian                       ... done (   0.0 sec)
Diagonalizing the Hamiltonian                      ... done (   0.0 sec)
Back transforming the eigenvectors                 ... done (   0.0 sec)
Now organizing SCF variables                       ... done
                      ------------------
                      INITIAL GUESS DONE (   0.2 sec)
                      ------------------
--------------------
COSX GRID GENERATION
--------------------

General Integration Accuracy     IntAcc      ...  3.340
Radial Grid Type                 RadialGrid  ... Gauss-Chebyshev
Angular Grid (max. acc.)         AngularGrid ... Lebedev-50
Angular grid pruning method      GridPruning ... 3 (G Style)
Weight generation scheme         WeightScheme... Becke
Basis function cutoff            BFCut       ...    1.0000e-11
Integration weight cutoff        WCut        ...    1.0000e-14
Grids for H and He will be reduced by one unit

# of grid points (after initial pruning)     ...   6064 (   0.0 sec)
# of grid points (after weights+screening)   ...   5773 (   0.0 sec)
nearest neighbour list constructed           ...    0.0 sec
Grid point re-assignment to atoms done       ...    0.0 sec
Grid point division into batches done        ...    0.0 sec
Reduced shell lists constructed in    0.0 sec

Total number of grid points                  ...     5773
Total number of batches                      ...       96
Average number of points per batch           ...       60
Average number of grid points per atom       ...      481
Average number of shells per batch           ...    45.68 (72.51%)
Average number of basis functions per batch  ...    98.72 (70.01%)
Average number of large shells per batch     ...    39.08 (85.55%)
Average number of large basis fcns per batch ...    82.04 (83.10%)
Maximum spatial batch extension              ...  14.64, 17.24, 15.71 au
Average spatial batch extension              ...   0.97,  0.88,  0.98 au

Overlap Fitting                  UseSFitting ... on
Constructing numerical overlap ... done (      0.0 sec)
Inverting numerical overlap    ... done (      0.0 sec)
Obtaining analytic overlap     ... done (      0.0 sec)
Final contraction and storage  ... done (      0.0 sec)


General Integration Accuracy     IntAcc      ...  3.670
Radial Grid Type                 RadialGrid  ... Gauss-Chebyshev
Angular Grid (max. acc.)         AngularGrid ... Lebedev-50
Angular grid pruning method      GridPruning ... 3 (G Style)
Weight generation scheme         WeightScheme... Becke
Basis function cutoff            BFCut       ...    1.0000e-11
Integration weight cutoff        WCut        ...    1.0000e-14
Grids for H and He will be reduced by one unit

# of grid points (after initial pruning)     ...   7582 (   0.0 sec)
# of grid points (after weights+screening)   ...   7191 (   0.0 sec)
nearest neighbour list constructed           ...    0.0 sec
Grid point re-assignment to atoms done       ...    0.0 sec
Grid point division into batches done        ...    0.0 sec
Reduced shell lists constructed in    0.0 sec

Total number of grid points                  ...     7191
Total number of batches                      ...      120
Average number of points per batch           ...       59
Average number of grid points per atom       ...      599
Average number of shells per batch           ...    45.65 (72.45%)
Average number of basis functions per batch  ...    98.16 (69.62%)
Average number of large shells per batch     ...    38.97 (85.37%)
Average number of large basis fcns per batch ...    81.29 (82.81%)
Maximum spatial batch extension              ...  15.33, 21.22, 17.04 au
Average spatial batch extension              ...   0.86,  0.83,  0.87 au

Overlap Fitting                  UseSFitting ... on
Constructing numerical overlap ... done (      0.0 sec)
Inverting numerical overlap    ... done (      0.0 sec)
Obtaining analytic overlap     ... done (      0.0 sec)
Final contraction and storage  ... done (      0.0 sec)


General Integration Accuracy     IntAcc      ...  4.010
Radial Grid Type                 RadialGrid  ... Gauss-Chebyshev
Angular Grid (max. acc.)         AngularGrid ... Lebedev-110
Angular grid pruning method      GridPruning ... 3 (G Style)
Weight generation scheme         WeightScheme... Becke
Basis function cutoff            BFCut       ...    1.0000e-11
Integration weight cutoff        WCut        ...    1.0000e-14
Grids for H and He will be reduced by one unit

# of grid points (after initial pruning)     ...  14244 (   0.0 sec)
# of grid points (after weights+screening)   ...  13598 (   0.0 sec)
nearest neighbour list constructed           ...    0.0 sec
Grid point re-assignment to atoms done       ...    0.0 sec
Grid point division into batches done        ...    0.0 sec
Reduced shell lists constructed in    0.0 sec

Total number of grid points                  ...    13598
Total number of batches                      ...      218
Average number of points per batch           ...       62
Average number of grid points per atom       ...     1133
Average number of shells per batch           ...    43.84 (69.59%)
Average number of basis functions per batch  ...    94.05 (66.70%)
Average number of large shells per batch     ...    36.68 (83.67%)
Average number of large basis fcns per batch ...    76.71 (81.56%)
Maximum spatial batch extension              ...  17.88, 16.74, 17.35 au
Average spatial batch extension              ...   0.84,  0.82,  0.83 au

Overlap Fitting                  UseSFitting ... on
Constructing numerical overlap ... done (      0.0 sec)
Inverting numerical overlap    ... done (      0.0 sec)
Obtaining analytic overlap     ... done (      0.0 sec)
Final contraction and storage  ... done (      0.0 sec)

Time for X-Grid setup             =    0.168 sec

--------------------
CPCM SOLVATION MODEL
--------------------
CPCM parameters:
  Epsilon                                         ...      20.7000
  Refrac                                          ...       1.3590
  Rsolv                                           ...       1.3000
  Surface type                                    ... GAUSSIAN VDW
  Epsilon function type                           ...         CPCM
Radii:
 Radius for C  used is    3.8550 Bohr (=   2.0400 Ang.)
 Radius for Br used is    4.1952 Bohr (=   2.2200 Ang.)
 Radius for H  used is    2.4944 Bohr (=   1.3200 Ang.)
Calculating surface                               ...        done! (  0.0s)
GEPOL surface points                              ...          741
GEPOL Volume                                      ...    1035.2909
GEPOL Surface-area                                ...     623.5662
Calculating surface distance matrix               ...        done! (  0.0s)
Performing Cholesky decomposition & store         ...        done! (  0.0s)
Overall time for CPCM initialization              ...                 0.0s
--------------
SCF ITERATIONS
--------------
ITER       Energy         Delta-E        Max-DP      RMS-DP      [F,P]     Damp
               ***  Starting incremental Fock matrix formation  ***
  0  -5265.4317878176   0.000000000000 0.10910014  0.00224358  0.1634566 0.7000
  1  -5265.4920808111  -0.060292993490 0.08246811  0.00170455  0.0872842 0.7000
                               ***Turning on DIIS***
  2  -5265.5194065865  -0.027325775450 0.16170778  0.00330310  0.0402682 0.0000
  3  -5265.5597191471  -0.040312560594 0.03653258  0.00098676  0.0460764 0.0000
  4  -5265.5691387159  -0.009419568831 0.01943904  0.00033527  0.0084488 0.0000
                      *** Initiating the SOSCF procedure ***
                           *** Shutting down DIIS ***
                      *** Re-Reading the Fockian *** 
                      *** Removing any level shift *** 
ITER      Energy       Delta-E        Grad      Rot      Max-DP    RMS-DP
  5  -5265.56952432  -0.0003856034  0.000624  0.000624  0.001586  0.000077
               *** Restarting incremental Fock matrix formation ***
  6  -5265.56953667  -0.0000123533  0.000289  0.000550  0.001218  0.000052
  7  -5265.56953738  -0.0000007053  0.000228  0.000168  0.000798  0.000015
  8  -5265.56953924  -0.0000018649  0.000033  0.000018  0.000183  0.000003
  9  -5265.56953922   0.0000000210  0.000028  0.000008  0.000075  0.000001
 10  -5265.56953926  -0.0000000362  0.000003  0.000002  0.000007  0.000000
                  ***Gradient check signals convergence***
              ***Rediagonalizing the Fockian in SOSCF/NRSCF***

               *****************************************************
               *                     SUCCESS                       *
               *           SCF CONVERGED AFTER  11 CYCLES          *
               *****************************************************

Setting up the final grid:

General Integration Accuracy     IntAcc      ...  4.670
Radial Grid Type                 RadialGrid  ... Gauss-Chebyshev
Angular Grid (max. acc.)         AngularGrid ... Lebedev-302
Angular grid pruning method      GridPruning ... 3 (G Style)
Weight generation scheme         WeightScheme... Becke
Basis function cutoff            BFCut       ...    1.0000e-11
Integration weight cutoff        WCut        ...    1.0000e-14
Grids for H and He will be reduced by one unit

# of grid points (after initial pruning)     ...  61626 (   0.0 sec)
# of grid points (after weights+screening)   ...  57966 (   0.0 sec)
nearest neighbour list constructed           ...    0.0 sec
Grid point re-assignment to atoms done       ...    0.0 sec
Grid point division into batches done        ...    0.2 sec
Reduced shell lists constructed in    0.3 sec

Total number of grid points                  ...    57966
Total number of batches                      ...      910
Average number of points per batch           ...       63
Average number of grid points per atom       ...     4830
Average number of shells per batch           ...    41.84 (66.42%)
Average number of basis functions per batch  ...    89.38 (63.39%)
Average number of large shells per batch     ...    34.50 (82.46%)
Average number of large basis fcns per batch ...    71.76 (80.29%)
Maximum spatial batch extension              ...  15.86, 16.05, 14.82 au
Average spatial batch extension              ...   0.53,  0.54,  0.53 au

Final grid set up in    0.4 sec
Final integration                            ... done (   0.1 sec)
Change in XC energy                          ...    -0.000423100
Integrated number of electrons               ...    96.000029312
Previous integrated no of electrons          ...    95.996239150
Old exchange energy                            =    -49.364684450 Eh
New exchange energy                            =    -49.364740296 Eh
Exchange energy change after final integration =     -0.000055846 Eh
Total energy after final integration           =  -5265.570018242 Eh
Final COS-X integration done in                =     0.803 sec

----------------
TOTAL SCF ENERGY
----------------

Total Energy       :        -5265.57001824 Eh         -143283.44459 eV

Components:
Nuclear Repulsion  :          490.13845605 Eh           13337.34545 eV
Electronic Energy  :        -5755.70847430 Eh         -156620.79003 eV
One Electron Energy:        -8319.73107122 Eh         -226391.39196 eV
Two Electron Energy:         2564.02259692 Eh           69770.60193 eV
CPCM Dielectric    :           -0.09742660 Eh              -2.65111 eV

Virial components:
Potential Energy   :       -10524.67595177 Eh         -286390.99248 eV
Kinetic Energy     :         5259.10593353 Eh          143107.54790 eV
Virial Ratio       :            2.00122912


DFT components:
N(Alpha)           :       48.000014655994 electrons
N(Beta)            :       48.000014655994 electrons
N(Total)           :       96.000029311988 electrons
E(X)               :     -147.452389627379 Eh       
E(C)               :       -4.274553225523 Eh       
E(XC)              :     -151.726942852902 Eh       
DFET-embed. en.    :        0.000000000000 Eh       
CPCM Solvation Model Properties:
Surface-charge          :            0.97876485
Charge-correction       :           -0.00291225 Eh              -0.07925 eV
Free-energy (cav+disp)  :            0.00398734 Eh               0.10850 eV
Corrected G(solv)       :        -5265.56894316 Eh         -143283.41533 eV

---------------
SCF CONVERGENCE
---------------

  Last Energy change         ...   -3.7871e-08  Tolerance :   1.0000e-08
  Last MAX-Density change    ...    3.5527e-15  Tolerance :   1.0000e-07
  Last RMS-Density change    ...    8.8363e-17  Tolerance :   5.0000e-09
  Last Orbital Gradient      ...    1.8326e-06  Tolerance :   1.0000e-05
  Last Orbital Rotation      ...    1.6405e-06  Tolerance :   1.0000e-05

             **** THE GBW FILE WAS UPDATED (manual_reactants_329.gbw) ****
             **** DENSITY FILE WAS UPDATED (manual_reactants_329.scfp) ****
             **** ENERGY FILE WAS UPDATED (manual_reactants_329.en.tmp) ****
             **** THE GBW FILE WAS UPDATED (manual_reactants_329.gbw) ****
             **** DENSITY FILE WAS UPDATED (manual_reactants_329.scfp) ****
----------------
ORBITAL ENERGIES
----------------

  NO   OCC          E(Eh)            E(eV) 
   0   2.0000    -483.168848    -13147.6928 
   1   2.0000    -483.066389    -13144.9047 
   2   2.0000     -62.605207     -1703.5743 
   3   2.0000     -62.501599     -1700.7550 
   4   2.0000     -56.394354     -1534.5684 
   5   2.0000     -56.392141     -1534.5082 
   6   2.0000     -56.392033     -1534.5052 
   7   2.0000     -56.289621     -1531.7185 
   8   2.0000     -56.289435     -1531.7134 
   9   2.0000     -56.289238     -1531.7080 
  10   2.0000     -10.263665      -279.2885 
  11   2.0000     -10.226640      -278.2810 
  12   2.0000     -10.212317      -277.8913 
  13   2.0000      -8.750536      -238.1142 
  14   2.0000      -8.645122      -235.2457 
  15   2.0000      -6.564641      -178.6330 
  16   2.0000      -6.552823      -178.3114 
  17   2.0000      -6.552700      -178.3080 
  18   2.0000      -6.451630      -175.5578 
  19   2.0000      -6.451454      -175.5530 
  20   2.0000      -6.451190      -175.5458 
  21   2.0000      -2.650296       -72.1182 
  22   2.0000      -2.646899       -72.0258 
  23   2.0000      -2.646838       -72.0241 
  24   2.0000      -2.637288       -71.7643 
  25   2.0000      -2.637278       -71.7640 
  26   2.0000      -2.538501       -69.0761 
  27   2.0000      -2.538454       -69.0748 
  28   2.0000      -2.538298       -69.0706 
  29   2.0000      -2.538158       -69.0668 
  30   2.0000      -2.538097       -69.0651 
  31   2.0000      -0.827885       -22.5279 
  32   2.0000      -0.762894       -20.7594 
  33   2.0000      -0.661585       -18.0027 
  34   2.0000      -0.655227       -17.8296 
  35   2.0000      -0.587528       -15.9874 
  36   2.0000      -0.476987       -12.9795 
  37   2.0000      -0.436268       -11.8715 
  38   2.0000      -0.414997       -11.2926 
  39   2.0000      -0.399079       -10.8595 
  40   2.0000      -0.353966        -9.6319 
  41   2.0000      -0.345423        -9.3994 
  42   2.0000      -0.334677        -9.1070 
  43   2.0000      -0.280106        -7.6221 
  44   2.0000      -0.279210        -7.5977 
  45   2.0000      -0.216943        -5.9033 
  46   2.0000      -0.216867        -5.9012 
  47   2.0000      -0.212547        -5.7837 
  48   0.0000       0.025905         0.7049 
  49   0.0000       0.097933         2.6649 
  50   0.0000       0.122239         3.3263 
  51   0.0000       0.135730         3.6934 
  52   0.0000       0.149338         4.0637 
  53   0.0000       0.171378         4.6634 
  54   0.0000       0.185077         5.0362 
  55   0.0000       0.194856         5.3023 
  56   0.0000       0.226563         6.1651 
  57   0.0000       0.251524         6.8443 
  58   0.0000       0.360251         9.8029 
  59   0.0000       0.409547        11.1443 
  60   0.0000       0.418844        11.3973 
  61   0.0000       0.426824        11.6145 
  62   0.0000       0.442964        12.0537 
  63   0.0000       0.462742        12.5918 
  64   0.0000       0.466932        12.7059 
  65   0.0000       0.533392        14.5143 
  66   0.0000       0.537492        14.6259 
  67   0.0000       0.579355        15.7650 
  68   0.0000       0.588521        16.0145 
  69   0.0000       0.609042        16.5729 
  70   0.0000       0.620759        16.8917 
  71   0.0000       0.627495        17.0750 
  72   0.0000       0.629027        17.1167 
  73   0.0000       0.631578        17.1861 
  74   0.0000       0.634640        17.2694 
  75   0.0000       0.644755        17.5447 
  76   0.0000       0.647743        17.6260 
  77   0.0000       0.658707        17.9243 
  78   0.0000       0.678047        18.4506 
  79   0.0000       0.699477        19.0337 
  80   0.0000       0.707106        19.2413 
  81   0.0000       0.711023        19.3479 
  82   0.0000       0.713382        19.4121 
  83   0.0000       0.721820        19.6417 
  84   0.0000       0.730630        19.8814 
  85   0.0000       0.733797        19.9676 
  86   0.0000       0.779848        21.2207 
  87   0.0000       0.794762        21.6266 
  88   0.0000       0.838409        22.8143 
  89   0.0000       0.871403        23.7121 
  90   0.0000       0.907629        24.6978 
  91   0.0000       1.011598        27.5270 
  92   0.0000       1.030782        28.0490 
  93   0.0000       1.045493        28.4493 
  94   0.0000       1.077595        29.3229 
  95   0.0000       1.193028        32.4639 
  96   0.0000       1.238336        33.6968 
  97   0.0000       1.374082        37.3907 
  98   0.0000       1.386077        37.7171 
  99   0.0000       1.422635        38.7119 
 100   0.0000       1.559303        42.4308 
 101   0.0000       1.685342        45.8605 
 102   0.0000       1.749238        47.5992 
 103   0.0000       1.762089        47.9489 
 104   0.0000       1.793424        48.8015 
 105   0.0000       1.796213        48.8774 
 106   0.0000       1.813296        49.3423 
 107   0.0000       1.842579        50.1391 
 108   0.0000       1.856137        50.5081 
 109   0.0000       1.882734        51.2318 
 110   0.0000       1.905717        51.8572 
 111   0.0000       1.935986        52.6809 
 112   0.0000       1.973795        53.7097 
 113   0.0000       1.989042        54.1246 
 114   0.0000       2.100098        57.1466 
 115   0.0000       2.166229        58.9461 
 116   0.0000       2.241111        60.9837 
 117   0.0000       2.340171        63.6793 
 118   0.0000       2.398376        65.2631 
 119   0.0000       2.418420        65.8086 
 120   0.0000       2.453002        66.7496 
 121   0.0000       2.559817        69.6562 
 122   0.0000       2.595405        70.6246 
 123   0.0000       2.613239        71.1098 
 124   0.0000       2.779976        75.6470 
 125   0.0000       2.851474        77.5926 
 126   0.0000       2.911461        79.2249 
 127   0.0000       2.945697        80.1565 
 128   0.0000       3.025076        82.3165 
 129   0.0000       3.055957        83.1568 
 130   0.0000       3.092240        84.1441 
 131   0.0000       3.479877        94.6923 
 132   0.0000       3.500144        95.2438 
 133   0.0000       3.559832        96.8680 
 134   0.0000       3.560093        96.8750 
 135   0.0000       3.561443        96.9118 
 136   0.0000       3.592064        97.7450 
 137   0.0000       3.596097        97.8548 
 138   0.0000       3.606952        98.1502 
 139   0.0000       3.638181        98.9999 
 140   0.0000       3.843588       104.5894 

                    ********************************
                    * MULLIKEN POPULATION ANALYSIS *
                    ********************************

-----------------------
MULLIKEN ATOMIC CHARGES
-----------------------
   0 C :   -0.086774
   1 C :   -0.083450
   2 C :   -0.120252
   3 Br:   -0.216337
   4 H :    0.045981
   5 H :    0.026898
   6 H :    0.042008
   7 H :    0.048056
   8 H :    0.050130
   9 H :    0.080139
  10 H :    0.095194
  11 Br:   -0.881591
Sum of atomic charges:   -1.0000000

--------------------------------
MULLIKEN REDUCED ORBITAL CHARGES
--------------------------------
  0 C s       :     3.043133  s :     3.043133
      pz      :     0.997945  p :     3.016331
      px      :     0.986860
      py      :     1.031525
      dz2     :     0.005103  d :     0.027310
      dxz     :     0.006181
      dyz     :     0.006150
      dx2y2   :     0.006597
      dxy     :     0.003280
  1 C s       :     3.068848  s :     3.068848
      pz      :     1.027918  p :     2.977604
      px      :     0.920475
      py      :     1.029211
      dz2     :     0.006490  d :     0.036998
      dxz     :     0.008411
      dyz     :     0.007662
      dx2y2   :     0.009338
      dxy     :     0.005096
  2 C s       :     3.165356  s :     3.165356
      pz      :     0.936526  p :     2.919371
      px      :     0.896690
      py      :     1.086154
      dz2     :     0.005642  d :     0.035526
      dxz     :     0.009938
      dyz     :     0.005350
      dx2y2   :     0.009457
      dxy     :     0.005138
  3 Brs       :     7.968382  s :     7.968382
      pz      :     5.591336  p :    17.205429
      px      :     5.648829
      py      :     5.965264
      dz2     :     2.008946  d :    10.042526
      dxz     :     2.017242
      dyz     :     2.005990
      dx2y2   :     2.005920
      dxy     :     2.004428
  4 H s       :     0.930213  s :     0.930213
      pz      :     0.005278  p :     0.023806
      px      :     0.012275
      py      :     0.006253
  5 H s       :     0.947849  s :     0.947849
      pz      :     0.011124  p :     0.025253
      px      :     0.006138
      py      :     0.007991
  6 H s       :     0.934184  s :     0.934184
      pz      :     0.005425  p :     0.023808
      px      :     0.004849
      py      :     0.013533
  7 H s       :     0.929380  s :     0.929380
      pz      :     0.005356  p :     0.022563
      px      :     0.003727
      py      :     0.013481
  8 H s       :     0.927504  s :     0.927504
      pz      :     0.010050  p :     0.022366
      px      :     0.004345
      py      :     0.007971
  9 H s       :     0.894157  s :     0.894157
      pz      :     0.013183  p :     0.025704
      px      :     0.004063
      py      :     0.008458
 10 H s       :     0.882146  s :     0.882146
      pz      :     0.004293  p :     0.022660
      px      :     0.003413
      py      :     0.014955
 11 Brs       :     7.993049  s :     7.993049
      pz      :     5.938492  p :    17.887144
      px      :     5.963791
      py      :     5.984861
      dz2     :     2.000478  d :    10.001398
      dxz     :     2.000181
      dyz     :     2.000577
      dx2y2   :     2.000106
      dxy     :     2.000057


                     *******************************
                     * LOEWDIN POPULATION ANALYSIS *
                     *******************************

----------------------
LOEWDIN ATOMIC CHARGES
----------------------
   0 C :   -0.077615
   1 C :   -0.070527
   2 C :   -0.089396
   3 Br:   -0.047974
   4 H :    0.031560
   5 H :    0.012921
   6 H :    0.028073
   7 H :    0.029145
   8 H :    0.027623
   9 H :    0.002002
  10 H :    0.034659
  11 Br:   -0.880471

-------------------------------
LOEWDIN REDUCED ORBITAL CHARGES
-------------------------------
  0 C s       :     2.845462  s :     2.845462
      pz      :     1.049751  p :     3.162067
      px      :     1.038164
      py      :     1.074153
      dz2     :     0.012372  d :     0.070085
      dxz     :     0.017555
      dyz     :     0.014898
      dx2y2   :     0.017365
      dxy     :     0.007896
  1 C s       :     2.845702  s :     2.845702
      pz      :     1.050457  p :     3.133390
      px      :     1.015643
      py      :     1.067291
      dz2     :     0.014966  d :     0.091434
      dxz     :     0.021956
      dyz     :     0.018633
      dx2y2   :     0.024733
      dxy     :     0.011146
  2 C s       :     2.919519  s :     2.919519
      pz      :     0.992246  p :     3.087093
      px      :     0.986909
      py      :     1.107937
      dz2     :     0.013275  d :     0.082785
      dxz     :     0.022115
      dyz     :     0.012989
      dx2y2   :     0.023720
      dxy     :     0.010685
  3 Brs       :     7.826308  s :     7.826308
      pz      :     5.586361  p :    17.167517
      px      :     5.634769
      py      :     5.946386
      dz2     :     2.011264  d :    10.054149
      dxz     :     2.023216
      dyz     :     2.006842
      dx2y2   :     2.007759
      dxy     :     2.005069
  4 H s       :     0.902248  s :     0.902248
      pz      :     0.015244  p :     0.066192
      px      :     0.034705
      py      :     0.016243
  5 H s       :     0.915775  s :     0.915775
      pz      :     0.032860  p :     0.071303
      px      :     0.017005
      py      :     0.021438
  6 H s       :     0.905837  s :     0.905837
      pz      :     0.015596  p :     0.066091
      px      :     0.013047
      py      :     0.037448
  7 H s       :     0.904543  s :     0.904543
      pz      :     0.016019  p :     0.066312
      px      :     0.012204
      py      :     0.038089
  8 H s       :     0.906014  s :     0.906014
      pz      :     0.029830  p :     0.066363
      px      :     0.014806
      py      :     0.021727
  9 H s       :     0.912545  s :     0.912545
      pz      :     0.045235  p :     0.085453
      px      :     0.014337
      py      :     0.025881
 10 H s       :     0.894265  s :     0.894265
      pz      :     0.014640  p :     0.071076
      px      :     0.012275
      py      :     0.044161
 11 Brs       :     7.987776  s :     7.987776
      pz      :     5.938071  p :    17.891053
      px      :     5.970379
      py      :     5.982603
      dz2     :     2.000567  d :    10.001642
      dxz     :     2.000193
      dyz     :     2.000700
      dx2y2   :     2.000122
      dxy     :     2.000060


                      *****************************
                      * MAYER POPULATION ANALYSIS *
                      *****************************

  NA   - Mulliken gross atomic population
  ZA   - Total nuclear charge
  QA   - Mulliken gross atomic charge
  VA   - Mayer's total valence
  BVA  - Mayer's bonded valence
  FA   - Mayer's free valence

  ATOM       NA         ZA         QA         VA         BVA        FA
  0 C      6.0868     6.0000    -0.0868     3.9772     3.9772    -0.0000
  1 C      6.0835     6.0000    -0.0835     4.0225     4.0225    -0.0000
  2 C      6.1203     6.0000    -0.1203     3.8426     3.8426    -0.0000
  3 Br    35.2163    35.0000    -0.2163     1.0073     1.0073    -0.0000
  4 H      0.9540     1.0000     0.0460     0.9812     0.9812    -0.0000
  5 H      0.9731     1.0000     0.0269     1.0542     1.0542    -0.0000
  6 H      0.9580     1.0000     0.0420     0.9836     0.9836    -0.0000
  7 H      0.9519     1.0000     0.0481     0.9795     0.9795     0.0000
  8 H      0.9499     1.0000     0.0501     0.9756     0.9756     0.0000
  9 H      0.9199     1.0000     0.0801     1.0731     1.0731    -0.0000
 10 H      0.9048     1.0000     0.0952     0.9688     0.9688    -0.0000
 11 Br    35.8816    35.0000    -0.8816     0.2363     0.2363    -0.0000

  Mayer bond orders larger than 0.100000
B(  0-C ,  1-C ) :   1.0888 B(  0-C ,  4-H ) :   0.9663 B(  0-C ,  5-H ) :   0.9519 
B(  0-C ,  6-H ) :   0.9711 B(  1-C ,  2-C ) :   1.0401 B(  1-C ,  7-H ) :   0.9481 
B(  1-C ,  8-H ) :   0.9520 B(  2-C ,  3-Br) :   0.9714 B(  2-C ,  9-H ) :   0.9031 
B(  2-C , 10-H ) :   0.9480 B(  9-H , 11-Br) :   0.1573 


------------------
HIRSHFELD ANALYSIS
------------------

Total integrated alpha density =     47.998119575
Total integrated beta density  =     47.998119575

  ATOM     CHARGE      SPIN    
   0 C   -0.077007    0.000000
   1 C   -0.041112    0.000000
   2 C   -0.002916    0.000000
   3 Br  -0.174052    0.000000
   4 H    0.027801    0.000000
   5 H    0.004536    0.000000
   6 H    0.024900    0.000000
   7 H    0.023915    0.000000
   8 H    0.023142    0.000000
   9 H    0.003636    0.000000
  10 H    0.039247    0.000000
  11 Br  -0.848328    0.000000

  TOTAL  -0.996239    0.000000

-------
TIMINGS
-------

Total SCF time: 0 days 0 hours 0 min 11 sec 

Total time                  ....      11.315 sec
Sum of individual times     ....      11.164 sec  ( 98.7%)

Fock matrix formation       ....      10.323 sec  ( 91.2%)
  Split-RI-J                ....       1.570 sec  ( 15.2% of F)
  Chain of spheres X        ....       5.243 sec  ( 50.8% of F)
  COS-X 1 center corr.      ....       0.000 sec  (  0.0% of F)
  XC integration            ....       0.542 sec  (  5.2% of F)
    Basis function eval.    ....       0.215 sec  ( 39.7% of XC)
    Density eval.           ....       0.095 sec  ( 17.5% of XC)
    XC-Functional eval.     ....       0.052 sec  (  9.5% of XC)
    XC-Potential eval.      ....       0.141 sec  ( 26.0% of XC)
Diagonalization             ....       0.015 sec  (  0.1%)
Density matrix formation    ....       0.003 sec  (  0.0%)
Population analysis         ....       0.039 sec  (  0.3%)
Initial guess               ....       0.150 sec  (  1.3%)
Orbital Transformation      ....       0.000 sec  (  0.0%)
Orbital Orthonormalization  ....       0.000 sec  (  0.0%)
DIIS solution               ....       0.004 sec  (  0.0%)
SOSCF solution              ....       0.009 sec  (  0.1%)
Grid generation             ....       0.621 sec  (  5.5%)


-------------------------------------------------------------------------------
                          DFT DISPERSION CORRECTION                            
                                                                               
                              DFTD3 V3.1  Rev 1                                
                          USING Becke-Johnson damping                          
-------------------------------------------------------------------------------
The PBE0 functional is recognized
Active option DFTDOPT                   ...         4   

molecular C6(AA) [au] = 2599.225379 


            DFT-D V3
 parameters
 s6 scaling factor         :     1.0000 
 a1 scaling factor         :     0.4145 
 s8 scaling factor         :     1.2177 
 a2 scaling factor         :     4.8593 
 ad hoc parameters k1-k3   :    16.0000     1.3333    -4.0000 

 Edisp/kcal,au: -5.715355276434  -0.009107997414 
 E6   /kcal   :  -3.455299008 
 E8   /kcal   :  -2.260056269 
 % E8         :  39.543583195 

-------------------------   ----------------
Dispersion correction           -0.009107997
-------------------------   ----------------


-------------------------   --------------------
FINAL SINGLE POINT ENERGY     -5265.579126239033
-------------------------   --------------------

[1631282519.727337] [comp0805:33583:0]            sys.c:618  UCX  ERROR shmget(size=2097152 flags=0xfb0) for mm_recv_desc failed: Operation not permitted, please check shared memory limits by 'ipcs -l'
[1631282519.733558] [comp0805:33587:0]            sys.c:618  UCX  ERROR shmget(size=2097152 flags=0xfb0) for mm_recv_desc failed: Operation not permitted, please check shared memory limits by 'ipcs -l'
[1631282519.752504] [comp0805:33586:0]            sys.c:618  UCX  ERROR shmget(size=2097152 flags=0xfb0) for mm_recv_desc failed: Operation not permitted, please check shared memory limits by 'ipcs -l'
[1631282519.752787] [comp0805:33588:0]            sys.c:618  UCX  ERROR shmget(size=2097152 flags=0xfb0) for mm_recv_desc failed: Operation not permitted, please check shared memory limits by 'ipcs -l'
[1631282519.759692] [comp0805:33583:0]            sys.c:618  UCX  ERROR shmget(size=2097152 flags=0xb80) for ucp_am_bufs failed: Operation not permitted, please check shared memory limits by 'ipcs -l'
[1631282519.760312] [comp0805:33586:0]            sys.c:618  UCX  ERROR shmget(size=2097152 flags=0xb80) for ucp_am_bufs failed: Operation not permitted, please check shared memory limits by 'ipcs -l'


           ************************************************************
           *        Program running with 4 parallel MPI-processes     *
           *              working on a common directory               *
           ************************************************************
[1631282519.765349] [comp0805:33587:0]            sys.c:618  UCX  ERROR shmget(size=2097152 flags=0xb80) for ucp_am_bufs failed: Operation not permitted, please check shared memory limits by 'ipcs -l'
------------------------------------------------------------------------------
                         ORCA SCF GRADIENT CALCULATION
------------------------------------------------------------------------------

Gradient of the Kohn-Sham DFT energy:
Kohn-Sham wavefunction type      ... RKS
Hartree-Fock exchange scaling    ...    0.250
Number of operators              ...    1
Number of atoms                  ...   12
Basis set dimensions             ...  141
Integral neglect threshold       ... 2.5e-11
Integral primitive cutoff        ... 2.5e-12

[1631282520.277384] [comp0805:33588:0]            sys.c:618  UCX  ERROR shmget(size=2097152 flags=0xb80) for ucp_am_bufs failed: Operation not permitted, please check shared memory limits by 'ipcs -l'
Nuclear repulsion gradient       ... done
One Electron Gradient            ... done
Pre-screening matrix             ... done
RI-J gradient                    ... done
COSX-gradient                    ... done
Exchange-correlation gradient    ... done
Dispersion correction            ... done

------------------
CARTESIAN GRADIENT
------------------

   1   C   :    0.000131714   -0.000489189    0.000574448
   2   C   :   -0.000033422    0.000123283    0.000033214
   3   C   :    0.000326990   -0.000869074    0.001171334
   4   Br  :   -0.000056204    0.000231006   -0.000078046
   5   H   :    0.000089194    0.000021125    0.000064769
   6   H   :    0.001215231    0.000261082    0.000292537
   7   H   :    0.000025154    0.000009946    0.000033320
   8   H   :    0.000040160    0.000155024   -0.000123502
   9   H   :    0.000002097    0.000145195    0.000049303
  10   H   :    0.000014772   -0.000358528    0.001571465
  11   H   :   -0.000006620    0.000027010    0.000000782
  12   Br  :   -0.001260645    0.002235596   -0.003548907

Difference to translation invariance:
           :    0.0004884205    0.0014924764    0.0000407185

Norm of the cartesian gradient     ...    0.0051372352
RMS gradient                       ...    0.0008562059
MAX gradient                       ...    0.0035489067

-------
TIMINGS
-------

Total SCF gradient time            ...        2.348 sec

One electron gradient       ....       0.019 sec  (  0.8%)
Prescreening matrices       ....       0.106 sec  (  4.5%)
RI-J Coulomb gradient       ....       0.259 sec  ( 11.0%)
COSX gradient               ....       0.798 sec  ( 34.0%)
XC gradient                 ....       0.521 sec  ( 22.2%)
CPCM gradient               ....       0.327 sec  ( 13.9%)
   A-Matrix (El+Nuc)        ....       0.032 sec  (  1.3%)
   Potential                ....       0.295 sec  ( 12.6%)
------------------------------------------------------------------------------
                         ORCA GEOMETRY RELAXATION STEP
------------------------------------------------------------------------------

Reading the OPT-File                    .... done
Getting information on internals        .... done
Copying old internal coords+grads       .... done
Making the new internal coordinates     .... (new redundants).... done
Validating the new internal coordinates .... (new redundants).... done
Calculating the B-matrix                .... done
Calculating the G,G- and P matrices     .... done
Transforming gradient to internals      .... done
Projecting the internal gradient        .... done
Number of atoms                         ....  12
Number of internal coordinates          ....  59
Current Energy                          .... -5265.579126239 Eh
Current gradient norm                   ....     0.005137235 Eh/bohr
Maximum allowed component of the step   ....  0.300
Current trust radius                    ....  0.300
Evaluating the initial hessian          ....  (Almloef) done
Projecting the Hessian                  .... done
Forming the augmented Hessian           .... done
Diagonalizing the augmented Hessian     .... done
Last element of RFO vector              ....  0.903895904
Lowest eigenvalues of augmented Hessian:
 -0.001584099  0.006625522  0.014853135  0.019621371  0.046298025
Length of the computed step             ....  0.473232027
Warning: the length of the step is outside the trust region - taking restricted step instead
The input lambda is                     ....    -0.001584
   iter:   1  x=   -0.003631  g=   65.427196 f(x)=     0.133949
   iter:   2  x=   -0.005078  g=   29.690818 f(x)=     0.042955
   iter:   3  x=   -0.005535  g=   18.872031 f(x)=     0.008615
   iter:   4  x=   -0.005567  g=   16.577716 f(x)=     0.000539
   iter:   5  x=   -0.005567  g=   16.428940 f(x)=     0.000002
   iter:   6  x=   -0.005567  g=   16.428269 f(x)=     0.000000
   iter:   7  x=   -0.005567  g=   16.428269 f(x)=     0.000000
The output lambda is                    ....    -0.005567 (7 iterations)
The final length of the internal step   ....  0.300000000
Converting the step to cartesian space:
 Initial RMS(Int)=    0.0390566733
Transforming coordinates:
 Iter   0:  RMS(Cart)=    0.0352530937 RMS(Int)=    0.0374098372
 Iter   1:  RMS(Cart)=    0.0027424685 RMS(Int)=    0.0022093005
 Iter   2:  RMS(Cart)=    0.0000456999 RMS(Int)=    0.0000308423
 Iter   3:  RMS(Cart)=    0.0000007190 RMS(Int)=    0.0000006474
 Iter   4:  RMS(Cart)=    0.0000000140 RMS(Int)=    0.0000000122
done
Storing new coordinates                 .... done

                                .--------------------.
          ----------------------|Geometry convergence|-------------------------
          Item                value                   Tolerance       Converged
          ---------------------------------------------------------------------
          RMS gradient        0.0005063298            0.0001000000      NO
          MAX gradient        0.0029107296            0.0003000000      NO
          RMS step            0.0390566733            0.0020000000      NO
          MAX step            0.2176984128            0.0040000000      NO
          ........................................................
          Max(Bonds)      0.1152      Max(Angles)    1.66
          Max(Dihed)        0.69      Max(Improp)    0.00
          ---------------------------------------------------------------------

The optimization has not yet converged - more geometry cycles are needed


    ---------------------------------------------------------------------------
                         Redundant Internal Coordinates
                            (Angstroem and degrees)

        Definition                    Value    dE/dq     Step     New-Value
    ----------------------------------------------------------------------------
     1. B(C   1,C   0)                1.5223 -0.000073  0.0011    1.5233   
     2. B(C   2,C   1)                1.5118  0.000102  0.0006    1.5124   
     3. B(Br  3,C   2)                1.9620 -0.000023  0.0000    1.9620   
     4. B(H   4,C   0)                1.1008 -0.000030  0.0000    1.1009   
     5. B(H   5,C   0)                1.1015 -0.001035  0.0017    1.1032   
     6. B(H   6,C   0)                1.1018 -0.000065  0.0001    1.1019   
     7. B(H   7,C   1)                1.1025 -0.000011  0.0000    1.1025   
     8. B(H   8,C   1)                1.1025  0.000005 -0.0000    1.1025   
     9. B(H   9,C   2)                1.1026 -0.001260  0.0017    1.1044   
    10. B(H  10,C   2)                1.0989 -0.000123  0.0002    1.0991   
    11. B(Br 11,H   9)                2.5293 -0.002911  0.1152    2.6445   
    12. B(Br 11,H   5)                2.9124 -0.001753  0.1063    3.0187   
    13. A(H   4,C   0,H   5)          109.14  0.000157   -0.17    108.98   
    14. A(C   1,C   0,H   5)          110.02 -0.000112    0.35    110.38   
    15. A(H   4,C   0,H   6)          107.95 -0.000004   -0.05    107.90   
    16. A(C   1,C   0,H   6)          111.59  0.000056   -0.05    111.54   
    17. A(H   5,C   0,H   6)          107.58 -0.000130    0.03    107.61   
    18. A(C   1,C   0,H   4)          110.47  0.000034   -0.12    110.35   
    19. A(H   7,C   1,H   8)          106.50 -0.000024   -0.04    106.46   
    20. A(C   2,C   1,H   8)          109.94  0.000084   -0.15    109.79   
    21. A(C   0,C   1,H   8)          110.84 -0.000075   -0.15    110.69   
    22. A(C   0,C   1,C   2)          111.09 -0.000018    0.32    111.42   
    23. A(C   0,C   1,H   7)          109.59  0.000115   -0.01    109.58   
    24. A(C   2,C   1,H   7)          108.75 -0.000082    0.01    108.76   
    25. A(Br  3,C   2,H   9)          106.31  0.000022   -0.15    106.17   
    26. A(C   1,C   2,H   9)          111.92  0.000337    0.10    112.02   
    27. A(C   1,C   2,Br  3)          111.08 -0.000176   -0.04    111.05   
    28. A(H   9,C   2,H  10)          109.22 -0.000190    0.08    109.29   
    29. A(Br  3,C   2,H  10)          105.32  0.000037   -0.01    105.31   
    30. A(C   1,C   2,H  10)          112.60 -0.000047   -0.00    112.60   
    31. A(C   0,H   5,Br 11)          146.42 -0.000267    0.33    146.76   
    32. A(C   2,H   9,Br 11)          159.65 -0.000310    0.18    159.83   
    33. A(H   5,Br 11,H   9)           53.71  0.000471   -1.66     52.05   
    34. D(H   8,C   1,C   0,H   4)     62.74  0.000058   -0.56     62.18   
    35. D(H   7,C   1,C   0,H   6)   -174.61  0.000006   -0.24   -174.85   
    36. D(H   7,C   1,C   0,H   4)    -54.52  0.000061   -0.41    -54.93   
    37. D(H   8,C   1,C   0,H   5)   -176.69  0.000203   -0.61   -177.30   
    38. D(H   7,C   1,C   0,H   5)     66.05  0.000206   -0.47     65.58   
    39. D(C   2,C   1,C   0,H   6)     65.20  0.000045   -0.45     64.74   
    40. D(C   2,C   1,C   0,H   5)    -54.14  0.000245   -0.69    -54.83   
    41. D(H   8,C   1,C   0,H   6)    -57.35  0.000002   -0.38    -57.73   
    42. D(C   2,C   1,C   0,H   4)   -174.71  0.000100   -0.63   -175.34   
    43. D(H   9,C   2,C   1,H   7)    -65.16 -0.000074    0.40    -64.76   
    44. D(H   9,C   2,C   1,C   0)     55.53  0.000004    0.60     56.13   
    45. D(Br  3,C   2,C   1,H   8)    -62.75  0.000087    0.39    -62.36   
    46. D(Br  3,C   2,C   1,H   7)     53.49  0.000058    0.26     53.75   
    47. D(H   9,C   2,C   1,H   8)    178.60 -0.000045    0.53    179.12   
    48. D(Br  3,C   2,C   1,C   0)    174.19  0.000136    0.46    174.65   
    49. D(H  10,C   2,C   1,H   8)     55.11 -0.000015    0.35     55.46   
    50. D(H  10,C   2,C   1,H   7)    171.35 -0.000044    0.22    171.57   
    51. D(H  10,C   2,C   1,C   0)    -67.96  0.000034    0.42    -67.54   
    52. D(Br 11,H   5,C   0,H   6)    -86.27  0.000055   -0.07    -86.34   
    53. D(Br 11,H   5,C   0,H   4)    156.85  0.000048    0.06    156.91   
    54. D(Br 11,H   5,C   0,C   1)     35.48 -0.000025    0.10     35.58   
    55. D(Br 11,H   9,C   2,H  10)     81.04  0.000028    0.08     81.12   
    56. D(Br 11,H   9,C   2,Br  3)   -165.78 -0.000007    0.03   -165.75   
    57. D(Br 11,H   9,C   2,C   1)    -44.33 -0.000010   -0.05    -44.38   
    58. D(H   5,Br 11,H   9,C   2)     17.26  0.000022   -0.14     17.13   
    59. D(H   9,Br 11,H   5,C   0)    -10.25 -0.000101    0.14    -10.11   
    ----------------------------------------------------------------------------

         *************************************************************
         *                GEOMETRY OPTIMIZATION CYCLE   2            *
         *************************************************************
---------------------------------
CARTESIAN COORDINATES (ANGSTROEM)
---------------------------------
  C     -2.767153    0.301461    0.669969
  C     -1.761167    0.201591   -0.469479
  C     -0.377154    0.614972   -0.021437
  Br     0.941086    0.322418   -1.444902
  H     -3.748230   -0.081177    0.349095
  H     -2.421195   -0.282456    1.539731
  H     -2.901936    1.343954    1.000489
  H     -1.719712   -0.837368   -0.835918
  H     -2.077655    0.821800   -1.324275
  H     -0.029583    0.025706    0.845531
  H     -0.312938    1.685771    0.217946
  Br    -0.064943   -1.201503    3.187823

----------------------------
CARTESIAN COORDINATES (A.U.)
----------------------------
  NO LB      ZA    FRAG     MASS         X           Y           Z
   0 C     6.0000    0    12.011   -5.229162    0.569678    1.266057
   1 C     6.0000    0    12.011   -3.328123    0.380952   -0.887186
   2 C     6.0000    0    12.011   -0.712718    1.162129   -0.040510
   3 Br   35.0000    0    79.900    1.778395    0.609282   -2.730469
   4 H     1.0000    0     1.008   -7.083128   -0.153402    0.659693
   5 H     1.0000    0     1.008   -4.575396   -0.533764    2.909669
   6 H     1.0000    0     1.008   -5.483864    2.539705    1.890650
   7 H     1.0000    0     1.008   -3.249785   -1.582395   -1.579656
   8 H     1.0000    0     1.008   -3.926199    1.552976   -2.502518
   9 H     1.0000    0     1.008   -0.055904    0.048577    1.597821
  10 H     1.0000    0     1.008   -0.591366    3.185646    0.411858
  11 Br   35.0000    0    79.900   -0.122724   -2.270511    6.024113

--------------------------------
INTERNAL COORDINATES (ANGSTROEM)
--------------------------------
 C      0   0   0     0.000000000000     0.00000000     0.00000000
 C      1   0   0     1.523260448236     0.00000000     0.00000000
 C      2   1   0     1.512321484164   111.39844908     0.00000000
 Br     3   2   1     1.962039236231   111.04947421   174.64621708
 H      1   2   3     1.100855726047   110.34898086   184.66071959
 H      1   2   3     1.103236667336   110.36080867   305.17185821
 H      1   2   3     1.101908607521   111.54194527    64.74463969
 H      2   1   3     1.102466295657   109.58778514   120.40669464
 H      2   1   3     1.102497126436   110.70186802   237.52676358
 H      3   2   1     1.104388409115   112.00829981    56.12701040
 H      3   2   1     1.099107794822   112.60002684   292.46219708
 Br    10   3   2     2.644546264525   159.83334849   315.62086241

---------------------------
INTERNAL COORDINATES (A.U.)
---------------------------
 C      0   0   0     0.000000000000     0.00000000     0.00000000
 C      1   0   0     2.878545077800     0.00000000     0.00000000
 C      2   1   0     2.857873431514   111.39844908     0.00000000
 Br     3   2   1     3.707716820484   111.04947421   174.64621708
 H      1   2   3     2.080315835188   110.34898086   184.66071959
 H      1   2   3     2.084815162164   110.36080867   305.17185821
 H      1   2   3     2.082305492824   111.54194527    64.74463969
 H      2   1   3     2.083359370669   109.58778514   120.40669464
 H      2   1   3     2.083417632399   110.70186802   237.52676358
 H      3   2   1     2.086991638704   112.00829981    56.12701040
 H      3   2   1     2.077012723872   112.60002684   292.46219708
 Br    10   3   2     4.997468188437   159.83334849   315.62086241

[1631282523.248124] [comp0805:33666:0]            sys.c:618  UCX  ERROR shmget(size=2097152 flags=0xfb0) for mm_recv_desc failed: Operation not permitted, please check shared memory limits by 'ipcs -l'
[1631282523.254477] [comp0805:33664:0]            sys.c:618  UCX  ERROR shmget(size=2097152 flags=0xfb0) for mm_recv_desc failed: Operation not permitted, please check shared memory limits by 'ipcs -l'
[1631282523.280027] [comp0805:33665:0]            sys.c:618  UCX  ERROR shmget(size=2097152 flags=0xfb0) for mm_recv_desc failed: Operation not permitted, please check shared memory limits by 'ipcs -l'
[1631282523.280488] [comp0805:33667:0]            sys.c:618  UCX  ERROR shmget(size=2097152 flags=0xfb0) for mm_recv_desc failed: Operation not permitted, please check shared memory limits by 'ipcs -l'
[1631282523.288602] [comp0805:33666:0]            sys.c:618  UCX  ERROR shmget(size=2097152 flags=0xb80) for ucp_am_bufs failed: Operation not permitted, please check shared memory limits by 'ipcs -l'
[1631282523.288603] [comp0805:33664:0]            sys.c:618  UCX  ERROR shmget(size=2097152 flags=0xb80) for ucp_am_bufs failed: Operation not permitted, please check shared memory limits by 'ipcs -l'
[1631282523.289423] [comp0805:33665:0]            sys.c:618  UCX  ERROR shmget(size=2097152 flags=0xb80) for ucp_am_bufs failed: Operation not permitted, please check shared memory limits by 'ipcs -l'


           ************************************************************
           *        Program running with 4 parallel MPI-processes     *
[...]
  40   2.0000      -0.357396        -9.7252 
  41   2.0000      -0.348332        -9.4786 
  42   2.0000      -0.338240        -9.2040 
  43   2.0000      -0.281508        -7.6602 
  44   2.0000      -0.280254        -7.6261 
  45   2.0000      -0.216044        -5.8788 
  46   2.0000      -0.215568        -5.8659 
  47   2.0000      -0.214762        -5.8440 
  48   0.0000       0.023250         0.6327 
  49   0.0000       0.093948         2.5564 
  50   0.0000       0.120261         3.2725 
  51   0.0000       0.133580         3.6349 
  52   0.0000       0.136690         3.7195 
  53   0.0000       0.170055         4.6274 
  54   0.0000       0.178250         4.8504 
  55   0.0000       0.185137         5.0378 
  56   0.0000       0.224354         6.1050 
  57   0.0000       0.249677         6.7941 
  58   0.0000       0.359199         9.7743 
  59   0.0000       0.398764        10.8509 
  60   0.0000       0.420540        11.4435 
  61   0.0000       0.425045        11.5661 
  62   0.0000       0.440335        11.9821 
  63   0.0000       0.446974        12.1628 
  64   0.0000       0.463895        12.6232 
  65   0.0000       0.531096        14.4519 
  66   0.0000       0.536575        14.6010 
  67   0.0000       0.578500        15.7418 
  68   0.0000       0.586678        15.9643 
  69   0.0000       0.609577        16.5874 
  70   0.0000       0.615533        16.7495 
  71   0.0000       0.623528        16.9671 
  72   0.0000       0.630744        17.1634 
  73   0.0000       0.632624        17.2146 
  74   0.0000       0.633908        17.2495 
  75   0.0000       0.639024        17.3887 
  76   0.0000       0.645926        17.5765 
  77   0.0000       0.656449        17.8629 
  78   0.0000       0.667981        18.1767 
  79   0.0000       0.685971        18.6662 
  80   0.0000       0.701592        19.0913 
  81   0.0000       0.706091        19.2137 
  82   0.0000       0.709932        19.3182 
  83   0.0000       0.718292        19.5457 
  84   0.0000       0.726324        19.7643 
  85   0.0000       0.733071        19.9479 
  86   0.0000       0.739921        20.1343 
  87   0.0000       0.784906        21.3584 
  88   0.0000       0.800998        21.7963 
  89   0.0000       0.840431        22.8693 
  90   0.0000       0.888467        24.1764 
  91   0.0000       1.006276        27.3822 
  92   0.0000       1.029073        28.0025 
  93   0.0000       1.061454        28.8836 
  94   0.0000       1.072232        29.1769 
  95   0.0000       1.190610        32.3981 
  96   0.0000       1.229266        33.4500 
  97   0.0000       1.369548        37.2673 
  98   0.0000       1.381624        37.5959 
  99   0.0000       1.416657        38.5492 
 100   0.0000       1.555291        42.3216 
 101   0.0000       1.679171        45.6926 
 102   0.0000       1.745681        47.5024 
 103   0.0000       1.757493        47.8238 
 104   0.0000       1.790871        48.7321 
 105   0.0000       1.792726        48.7826 
 106   0.0000       1.809515        49.2394 
 107   0.0000       1.837535        50.0019 
 108   0.0000       1.853754        50.4432 
 109   0.0000       1.875507        51.0352 
 110   0.0000       1.898702        51.6663 
 111   0.0000       1.932228        52.5786 
 112   0.0000       1.967130        53.5283 
 113   0.0000       1.989252        54.1303 
 114   0.0000       2.094429        56.9923 
 115   0.0000       2.156432        58.6795 
 116   0.0000       2.234800        60.8120 
 117   0.0000       2.336646        63.5834 
 118   0.0000       2.397391        65.2363 
 119   0.0000       2.413578        65.6768 
 120   0.0000       2.448310        66.6219 
 121   0.0000       2.555995        69.5522 
 122   0.0000       2.589140        70.4541 
 123   0.0000       2.607944        70.9658 
 124   0.0000       2.779269        75.6278 
 125   0.0000       2.842945        77.3605 
 126   0.0000       2.906710        79.0956 
 127   0.0000       2.943212        80.0889 
 128   0.0000       3.025374        82.3246 
 129   0.0000       3.056919        83.1830 
 130   0.0000       3.085681        83.9657 
 131   0.0000       3.477938        94.6395 
 132   0.0000       3.498019        95.1859 
 133   0.0000       3.560785        96.8939 
 134   0.0000       3.561057        96.9013 
 135   0.0000       3.561227        96.9059 
 136   0.0000       3.567576        97.0787 
 137   0.0000       3.590677        97.7073 
 138   0.0000       3.603195        98.0479 
 139   0.0000       3.633290        98.8668 
 140   0.0000       3.839525       104.4788 

                    ********************************
                    * MULLIKEN POPULATION ANALYSIS *
                    ********************************

-----------------------
MULLIKEN ATOMIC CHARGES
-----------------------
   0 C :   -0.087304
   1 C :   -0.082212
   2 C :   -0.123352
   3 Br:   -0.207362
   4 H :    0.051647
   5 H :    0.035112
   6 H :    0.047995
   7 H :    0.053076
   8 H :    0.053159
   9 H :    0.076328
  10 H :    0.100707
  11 Br:   -0.917796
Sum of atomic charges:   -1.0000000

--------------------------------
MULLIKEN REDUCED ORBITAL CHARGES
--------------------------------
  0 C s       :     3.049156  s :     3.049156
      pz      :     0.992449  p :     3.010591
      px      :     0.987780
      py      :     1.030362
      dz2     :     0.004851  d :     0.027556
      dxz     :     0.006079
      dyz     :     0.006727
      dx2y2   :     0.007254
      dxy     :     0.002645
  1 C s       :     3.068265  s :     3.068265
      pz      :     1.026723  p :     2.977169
      px      :     0.917068
      py      :     1.033378
      dz2     :     0.006470  d :     0.036778
      dxz     :     0.008453
      dyz     :     0.007286
      dx2y2   :     0.009565
      dxy     :     0.005003
  2 C s       :     3.165244  s :     3.165244
      pz      :     0.954302  p :     2.922353
      px      :     0.884314
      py      :     1.083738
      dz2     :     0.005787  d :     0.035755
      dxz     :     0.009868
      dyz     :     0.005237
      dx2y2   :     0.009649
      dxy     :     0.005214
  3 Brs       :     7.968912  s :     7.968912
      pz      :     5.627863  p :    17.195706
      px      :     5.609284
      py      :     5.958559
      dz2     :     2.007954  d :    10.042745
      dxz     :     2.017385
      dyz     :     2.005573
      dx2y2   :     2.006714
      dxy     :     2.005119
  4 H s       :     0.924478  s :     0.924478
      pz      :     0.005615  p :     0.023875
      px      :     0.012413
      py      :     0.005847
  5 H s       :     0.940871  s :     0.940871
      pz      :     0.010762  p :     0.024017
      px      :     0.005029
      py      :     0.008225
  6 H s       :     0.928171  s :     0.928171
      pz      :     0.005511  p :     0.023833
      px      :     0.004647
      py      :     0.013675
  7 H s       :     0.924317  s :     0.924317
      pz      :     0.005196  p :     0.022606
      px      :     0.003668
      py      :     0.013743
  8 H s       :     0.924348  s :     0.924348
      pz      :     0.010572  p :     0.022493
      px      :     0.004132
      py      :     0.007789
  9 H s       :     0.898744  s :     0.898744
      pz      :     0.012772  p :     0.024928
      px      :     0.004131
      py      :     0.008025
 10 H s       :     0.876604  s :     0.876604
      pz      :     0.004183  p :     0.022689
      px      :     0.003357
      py      :     0.015149
 11 Brs       :     7.995857  s :     7.995857
      pz      :     5.951717  p :    17.921385
      px      :     5.985035
      py      :     5.984634
      dz2     :     2.000174  d :    10.000553
      dxz     :     2.000056
      dyz     :     2.000278
      dx2y2   :     2.000026
      dxy     :     2.000019


                     *******************************
                     * LOEWDIN POPULATION ANALYSIS *
                     *******************************

----------------------
LOEWDIN ATOMIC CHARGES
----------------------
   0 C :   -0.071780
   1 C :   -0.070200
   2 C :   -0.087439
   3 Br:   -0.040015
   4 H :    0.034752
   5 H :    0.024021
   6 H :    0.030919
   7 H :    0.031243
   8 H :    0.030396
   9 H :    0.006218
  10 H :    0.037177
  11 Br:   -0.925292

-------------------------------
LOEWDIN REDUCED ORBITAL CHARGES
-------------------------------
  0 C s       :     2.844816  s :     2.844816
      pz      :     1.046366  p :     3.156498
      px      :     1.037529
      py      :     1.072603
      dz2     :     0.011475  d :     0.070466
      dxz     :     0.017272
      dyz     :     0.016467
      dx2y2   :     0.019255
      dxy     :     0.005997
  1 C s       :     2.845614  s :     2.845614
      pz      :     1.051113  p :     3.133558
      px      :     1.013782
      py      :     1.068663
      dz2     :     0.014942  d :     0.091028
      dxz     :     0.022210
      dyz     :     0.017716
      dx2y2   :     0.025275
      dxy     :     0.010886
  2 C s       :     2.917186  s :     2.917186
      pz      :     1.003299  p :     3.086941
      px      :     0.978793
      py      :     1.104849
      dz2     :     0.013720  d :     0.083312
      dxz     :     0.022066
      dyz     :     0.012605
      dx2y2   :     0.024142
      dxy     :     0.010779
  3 Brs       :     7.825359  s :     7.825359
      pz      :     5.622743  p :    17.160424
      px      :     5.597590
      py      :     5.940092
      dz2     :     2.009780  d :    10.054231
      dxz     :     2.023269
      dyz     :     2.006433
      dx2y2   :     2.008848
      dxy     :     2.005902
  4 H s       :     0.899186  s :     0.899186
      pz      :     0.015865  p :     0.066062
      px      :     0.035196
      py      :     0.015000
  5 H s       :     0.909036  s :     0.909036
      pz      :     0.031104  p :     0.066944
      px      :     0.014069
      py      :     0.021771
  6 H s       :     0.903067  s :     0.903067
      pz      :     0.015482  p :     0.066014
      px      :     0.012778
      py      :     0.037754
  7 H s       :     0.902298  s :     0.902298
      pz      :     0.015549  p :     0.066459
      px      :     0.012129
      py      :     0.038782
  8 H s       :     0.903172  s :     0.903172
      pz      :     0.031117  p :     0.066432
      px      :     0.014084
      py      :     0.021231
  9 H s       :     0.913289  s :     0.913289
      pz      :     0.042420  p :     0.080493
      px      :     0.014310
      py      :     0.023763
 10 H s       :     0.891743  s :     0.891743
      pz      :     0.014239  p :     0.071080
      px      :     0.012063
      py      :     0.044778
 11 Brs       :     7.994210  s :     7.994210
      pz      :     5.956579  p :    17.930449
      px      :     5.988303
      py      :     5.985567
      dz2     :     2.000191  d :    10.000634
      dxz     :     2.000068
      dyz     :     2.000324
      dx2y2   :     2.000027
      dxy     :     2.000024


                      *****************************
                      * MAYER POPULATION ANALYSIS *
                      *****************************

  NA   - Mulliken gross atomic population
  ZA   - Total nuclear charge
  QA   - Mulliken gross atomic charge
  VA   - Mayer's total valence
  BVA  - Mayer's bonded valence
  FA   - Mayer's free valence

  ATOM       NA         ZA         QA         VA         BVA        FA
  0 C      6.0873     6.0000    -0.0873     3.9950     3.9950    -0.0000
  1 C      6.0822     6.0000    -0.0822     4.0193     4.0193     0.0000
  2 C      6.1234     6.0000    -0.1234     3.8606     3.8606     0.0000
  3 Br    35.2074    35.0000    -0.2074     1.0128     1.0128    -0.0000
  4 H      0.9484     1.0000     0.0516     0.9815     0.9815     0.0000
  5 H      0.9649     1.0000     0.0351     1.0153     1.0153    -0.0000
  6 H      0.9520     1.0000     0.0480     0.9835     0.9835    -0.0000
  7 H      0.9469     1.0000     0.0531     0.9785     0.9785     0.0000
  8 H      0.9468     1.0000     0.0532     0.9757     0.9757     0.0000
  9 H      0.9237     1.0000     0.0763     1.0674     1.0674     0.0000
 10 H      0.8993     1.0000     0.1007     0.9673     0.9673     0.0000
 11 Br    35.9178    35.0000    -0.9178     0.1645     0.1645     0.0000

  Mayer bond orders larger than 0.100000
B(  0-C ,  1-C ) :   1.0880 B(  0-C ,  4-H ) :   0.9680 B(  0-C ,  5-H ) :   0.9652 
B(  0-C ,  6-H ) :   0.9714 B(  1-C ,  2-C ) :   1.0393 B(  1-C ,  7-H ) :   0.9482 
B(  1-C ,  8-H ) :   0.9505 B(  2-C ,  3-Br) :   0.9799 B(  2-C ,  9-H ) :   0.9136 
B(  2-C , 10-H ) :   0.9472 B(  9-H , 11-Br) :   0.1393 


------------------
HIRSHFELD ANALYSIS
------------------

Total integrated alpha density =     47.997851406
Total integrated beta density  =     47.997851406

  ATOM     CHARGE      SPIN    
   0 C   -0.069277    0.000000
   1 C   -0.039058    0.000000
   2 C    0.000778    0.000000
   3 Br  -0.165762    0.000000
   4 H    0.031283    0.000000
   5 H    0.018866    0.000000
   6 H    0.028436    0.000000
   7 H    0.026671    0.000000
   8 H    0.026043    0.000000
   9 H    0.006204    0.000000
  10 H    0.042154    0.000000
  11 Br  -0.902041    0.000000

  TOTAL  -0.995703    0.000000

-------
TIMINGS
-------

Total SCF time: 0 days 0 hours 0 min 6 sec 

Total time                  ....       6.500 sec
Sum of individual times     ....       6.253 sec  ( 96.2%)

Fock matrix formation       ....       5.459 sec  ( 84.0%)
  Split-RI-J                ....       0.778 sec  ( 14.3% of F)
  Chain of spheres X        ....       2.947 sec  ( 54.0% of F)
  COS-X 1 center corr.      ....       0.000 sec  (  0.0% of F)
  XC integration            ....       0.275 sec  (  5.0% of F)
    Basis function eval.    ....       0.108 sec  ( 39.5% of XC)
    Density eval.           ....       0.045 sec  ( 16.4% of XC)
    XC-Functional eval.     ....       0.027 sec  (  9.7% of XC)
    XC-Potential eval.      ....       0.063 sec  ( 23.0% of XC)
Diagonalization             ....       0.002 sec  (  0.0%)
Density matrix formation    ....       0.002 sec  (  0.0%)
Population analysis         ....       0.037 sec  (  0.6%)
Initial guess               ....       0.009 sec  (  0.1%)
Orbital Transformation      ....       0.000 sec  (  0.0%)
Orbital Orthonormalization  ....       0.005 sec  (  0.1%)
DIIS solution               ....       0.000 sec  (  0.0%)
SOSCF solution              ....       0.006 sec  (  0.1%)
Grid generation             ....       0.738 sec  ( 11.3%)


-------------------------------------------------------------------------------
                          DFT DISPERSION CORRECTION                            
                                                                               
                              DFTD3 V3.1  Rev 1                                
                          USING Becke-Johnson damping                          
-------------------------------------------------------------------------------
The PBE0 functional is recognized
Active option DFTDOPT                   ...         4   

molecular C6(AA) [au] = 2599.454270 


            DFT-D V3
 parameters
 s6 scaling factor         :     1.0000 
 a1 scaling factor         :     0.4145 
 s8 scaling factor         :     1.2177 
 a2 scaling factor         :     4.8593 
 ad hoc parameters k1-k3   :    16.0000     1.3333    -4.0000 

 Edisp/kcal,au: -5.388110249741  -0.008586499324 
 E6   /kcal   :  -3.285397687 
 E8   /kcal   :  -2.102712563 
 % E8         :  39.025047106 

-------------------------   ----------------
Dispersion correction           -0.008586499
-------------------------   ----------------


-------------------------   --------------------
FINAL SINGLE POINT ENERGY     -5265.580009240436
-------------------------   --------------------

                                *** OPTIMIZATION RUN DONE ***

                            ***************************************
                            *     ORCA property calculations      *
                            ***************************************

                                    ---------------------
                                    Active property flags
                                    ---------------------
   (+) Dipole Moment


------------------------------------------------------------------------------
                       ORCA ELECTRIC PROPERTIES CALCULATION
------------------------------------------------------------------------------

Dipole Moment Calculation                       ... on
Quadrupole Moment Calculation                   ... off
Polarizability Calculation                      ... off
GBWName                                         ... manual_reactants_329.gbw
Electron density file                           ... manual_reactants_329.scfp
The origin for moment calculation is the CENTER OF MASS  = ( 0.317286, -0.620074  1.469230)

-------------
DIPOLE MOMENT
-------------
                                X             Y             Z
Electronic contribution:     22.18782      -6.54870       3.41814
Nuclear contribution   :    -23.27717       8.36300      -7.06623
                        -----------------------------------------
Total Dipole Moment    :     -1.08935       1.81430      -3.64808
                        -----------------------------------------
Magnitude (a.u.)       :      4.21745
Magnitude (Debye)      :     10.71990



--------------------
Rotational spectrum 
--------------------
 
Rotational constants in cm-1:     0.061837     0.016881     0.013477 
Rotational constants in MHz :  1853.840955   506.067856   404.043680 

 Dipole components along the rotational axes: 
x,y,z [a.u.] :    -3.996820     1.326270    -0.230867 
x,y,z [Debye]:   -10.159108     3.371110    -0.586817 

 
[1631282690.920376] [comp0805:37221:0]            sys.c:618  UCX  ERROR shmget(size=2097152 flags=0xfb0) for mm_recv_desc failed: Operation not permitted, please check shared memory limits by 'ipcs -l'
[1631282690.922400] [comp0805:37217:0]            sys.c:618  UCX  ERROR shmget(size=2097152 flags=0xfb0) for mm_recv_desc failed: Operation not permitted, please check shared memory limits by 'ipcs -l'
[1631282690.923586] [comp0805:37223:0]            sys.c:618  UCX  ERROR shmget(size=2097152 flags=0xfb0) for mm_recv_desc failed: Operation not permitted, please check shared memory limits by 'ipcs -l'
[1631282690.923686] [comp0805:37219:0]            sys.c:618  UCX  ERROR shmget(size=2097152 flags=0xfb0) for mm_recv_desc failed: Operation not permitted, please check shared memory limits by 'ipcs -l'
[1631282690.931190] [comp0805:37217:0]            sys.c:618  UCX  ERROR shmget(size=2097152 flags=0xb80) for ucp_am_bufs failed: Operation not permitted, please check shared memory limits by 'ipcs -l'
[1631282690.931845] [comp0805:37221:0]            sys.c:618  UCX  ERROR shmget(size=2097152 flags=0xb80) for ucp_am_bufs failed: Operation not permitted, please check shared memory limits by 'ipcs -l'
[1631282690.940431] [comp0805:37223:0]            sys.c:618  UCX  ERROR shmget(size=2097152 flags=0xb80) for ucp_am_bufs failed: Operation not permitted, please check shared memory limits by 'ipcs -l'
[1631282690.940430] [comp0805:37219:0]            sys.c:618  UCX  ERROR shmget(size=2097152 flags=0xb80) for ucp_am_bufs failed: Operation not permitted, please check shared memory limits by 'ipcs -l'

Timings for individual modules:

Sum of individual times         ...      184.496 sec (=   3.075 min)
GTO integral calculation        ...       16.830 sec (=   0.281 min)   9.1 %
SCF iterations                  ...      123.548 sec (=   2.059 min)  67.0 %
SCF Gradient evaluation         ...       41.651 sec (=   0.694 min)  22.6 %
Geometry relaxation             ...        2.467 sec (=   0.041 min)   1.3 %
                             ****ORCA TERMINATED NORMALLY****
TOTAL RUN TIME: 0 days 0 hours 3 minutes 7 seconds 682 msec
