
                                 *****************
                                 * O   R   C   A *
                                 *****************

           --- An Ab Initio, DFT and Semiempirical electronic structure package ---

                  #######################################################
                  #                        -***-                        #
                  #          Department of theory and spectroscopy      #
                  #               Directorship: Frank Neese             #
                  #        Max Planck Institute fuer Kohlenforschung    #
                  #                Kaiser Wilhelm Platz 1               #
                  #                 D-45470 Muelheim/Ruhr               #
                  #                      Germany                        #
                  #                                                     #
                  #                  All rights reserved                #
                  #                        -***-                        #
                  #######################################################


                         Program Version 4.2.1 -  RELEASE  -


 With contributions from (in alphabetic order):
   Daniel Aravena         : Magnetic Suceptibility
   Michael Atanasov       : Ab Initio Ligand Field Theory (pilot matlab implementation)
   Alexander A. Auer      : GIAO ZORA, VPT2
   Ute Becker             : Parallelization
   Giovanni Bistoni       : ED, misc. LED, open-shell LED, HFLD
   Martin Brehm           : Molecular dynamics
   Dmytro Bykov           : SCF Hessian
   Vijay G. Chilkuri      : MRCI spin determinant printing, contributions to CSF-ICE
   Dipayan Datta          : RHF DLPNO-CCSD density
   Achintya Kumar Dutta   : EOM-CC, STEOM-CC
   Dmitry Ganyushin       : Spin-Orbit,Spin-Spin,Magnetic field MRCI
   Miquel Garcia          : C-PCM Hessian, Gaussian charge scheme
   Yang Guo               : DLPNO-NEVPT2, CIM, IAO-localization
   Andreas Hansen         : Spin unrestricted coupled pair/coupled cluster methods
   Benjamin Helmich-Paris : CASSCF linear response (MC-RPA)
   Lee Huntington         : MR-EOM, pCC
   Robert Izsak           : Overlap fitted RIJCOSX, COSX-SCS-MP3, EOM
   Christian Kollmar      : KDIIS, OOCD, Brueckner-CCSD(T), CCSD density
   Simone Kossmann        : Meta GGA functionals, TD-DFT gradient, OOMP2, MP2 Hessian
   Martin Krupicka        : AUTO-CI
   Lucas Lang             : DCDCAS
   Dagmar Lenk            : GEPOL surface, SMD
   Dimitrios Liakos       : Extrapolation schemes; Compound Job, initial MDCI parallelization
   Dimitrios Manganas     : Further ROCIS development; embedding schemes
   Dimitrios Pantazis     : SARC Basis sets
   Taras Petrenko         : DFT Hessian,TD-DFT gradient, ASA, ECA, R-Raman, ABS, FL, XAS/XES, NRVS
   Peter Pinski           : DLPNO-MP2, DLPNO-MP2 Gradient
   Christoph Reimann      : Effective Core Potentials
   Marius Retegan         : Local ZFS, SOC
   Christoph Riplinger    : Optimizer, TS searches, QM/MM, DLPNO-CCSD(T), (RO)-DLPNO pert. Triples
   Tobias Risthaus        : Range-separated hybrids, TD-DFT gradient, RPA, STAB
   Michael Roemelt        : Original ROCIS implementation
   Masaaki Saitow         : Open-shell DLPNO-CCSD energy and density
   Barbara Sandhoefer     : DKH picture change effects
   Avijit Sen             : IP-ROCIS
   Kantharuban Sivalingam : CASSCF convergence, NEVPT2, FIC-MRCI
   Bernardo de Souza      : ESD, SOC TD-DFT
   Georgi Stoychev        : AutoAux, RI-MP2 NMR
   Willem Van den Heuvel  : Paramagnetic NMR
   Boris Wezisla          : Elementary symmetry handling
   Frank Wennmohs         : Technical directorship


 We gratefully acknowledge several colleagues who have allowed us to
 interface, adapt or use parts of their codes:
   Stefan Grimme, W. Hujo, H. Kruse,             : VdW corrections, initial TS optimization,
                  C. Bannwarth                     DFT functionals, gCP, sTDA/sTD-DF
   Ed Valeev, F. Pavosevic, A. Kumar             : LibInt (2-el integral package), F12 methods
   Garnet Chan, S. Sharma, J. Yang, R. Olivares  : DMRG
   Ulf Ekstrom                                   : XCFun DFT Library
   Mihaly Kallay                                 : mrcc  (arbitrary order and MRCC methods)
   Andreas Klamt, Michael Diedenhofen            : otool_cosmo (COSMO solvation model)
   Jiri Pittner, Ondrej Demel                    : Mk-CCSD
   Frank Weinhold                                : gennbo (NPA and NBO analysis)
   Christopher J. Cramer and Donald G. Truhlar   : smd solvation model
   Lars Goerigk                                  : TD-DFT with DH, B97 family of functionals
   V. Asgeirsson, H. Jonsson                     : NEB implementation
   FAccTs GmbH                                   : IRC, NEB, NEB-TS, Multilevel, MM, QM/MM, CI optimization
   S Lehtola, MJT Oliveira, MAL Marques          : LibXC Library


 Your calculation uses the libint2 library for the computation of 2-el integrals
 For citations please refer to: http://libint.valeyev.net

 Your ORCA version has been built with support for libXC version: 4.2.3
 For citations please refer to: https://tddft.org/programs/libxc/

 This ORCA versions uses:
   CBLAS   interface :  Fast vector & matrix operations
   LAPACKE interface :  Fast linear algebra routines
   SCALAPACK package :  Parallel linear algebra routines


Your calculation utilizes the atom-pairwise dispersion correction
with the Becke-Johnson damping scheme (D3BJ)
Cite in your paper:
S.Grimme, S.Ehrlich, L.Goerigk, J Comput Chem, (2011), 32, 1456–1465 
S.Grimme, J.Antony, S.Ehrlich and H.Krieg, J.Chem.Phys., 132, (2010), 154104 
   

----- Orbital basis set information -----
Your calculation utilizes the basis: def2-SVP
   F. Weigend and R. Ahlrichs, Phys. Chem. Chem. Phys. 7, 3297 (2005).

----- AuxJ basis set information -----
Your calculation utilizes the auxiliary basis: def2/J
   F. Weigend, Phys. Chem. Chem. Phys. 8, 1057 (2006).

cite the ECPs for I  [Def2-ECP] as follows:
Ce-Yb(ecp-28): M. Dolg, H. Stoll, H.Preuss, J. Chem. Phys., 1989, 90, 1730-1734.
Y-Cd(ecp-28), Hf-Hg(ecp-46): D. Andrae,U. Haeussermann, M. Dolg, H. Stoll, H. Preuss, Theor. Chim. Acta, 1990, 77, 123-141.
In-Sb(ecp-28), Tl-Bi(ecp-46): B. Metz, H. Stoll, M. Dolg, J. Chem. Phys., 2000, 113, 2563-2569.
Te-Xe(ecp-28), Po-Rn(ecp-46): K. A. Peterson, D. Figgen, E. Goll, H. Stoll, M. Dolg, J. Chem. Phys., 2003, 119, 11113-11123.
Rb(ecp-28), Cs(ecp-46): T. Leininger, A. Nicklass, W. Kuechle, H. Stoll, M. Dolg, A. Bergner, Chem. Phys. Lett., 1996, 255, 274-280.
Sr(ecp-28), Ba(ecp-46): M. Kaupp, P. V. Schleyer, H. Stoll and H. Preuss, J. Chem. Phys., 1991, 94, 1360-1366.
La(ecp-46): M. Dolg, H. Stoll, A. Savin, H. Preuss, Theor. Chim. Acta, 1989, 75, 173-194.
Lu(ecp-28): X. Cao, M. Dolg, J. Chem. Phys., 2001, 115, 7348-7355.

ECP parameters for I  [Def2-ECP] have been obtained from:
TURBOMOLE (7.0.2)

================================================================================
                                        WARNINGS
                       Please study these warnings very carefully!
================================================================================


WARNING: Geometry Optimization
  ===> : Switching off AutoStart
         For restart on a previous wavefunction, please use MOREAD

INFO   : the flag for use of LIBINT has been found!

================================================================================
                                       INPUT FILE
================================================================================
NAME = manual_reactants_348_opt.inp
|  1> ! Opt PBE0 RIJCOSX D3BJ def2-SVP def2/J CPCM(Acetone)
|  2> %geom MaxIter 100 end
|  3> %output 
|  4> xyzfile=True 
|  5> end 
|  6> %scf 
|  7> maxiter 250 
|  8> end
|  9> %output
| 10> Print[P_Hirshfeld] = 1
| 11> end
| 12> % maxcore
| 13> 4000
| 14> %pal nprocs 4
| 15> end
| 16> *xyz -1 1
| 17> C    -0.98634   0.79438  -2.40660
| 18> Br   -1.60436  -0.96719  -1.87830
| 19> H    -1.22816   1.49042  -1.59632
| 20> H    -1.50175   1.07172  -3.33226
| 21> H     0.09711   0.73683  -2.55875
| 22> I     1.12443   0.50760   1.46989
| 23> *
| 24> 
| 25>                          ****END OF INPUT****
================================================================================

                       *****************************
                       * Geometry Optimization Run *
                       *****************************

Geometry optimization settings:
Update method            Update   .... BFGS
Choice of coordinates    CoordSys .... Z-matrix Internals
Initial Hessian          InHess   .... Almoef's Model

Convergence Tolerances:
Energy Change            TolE     ....  5.0000e-06 Eh
Max. Gradient            TolMAXG  ....  3.0000e-04 Eh/bohr
RMS Gradient             TolRMSG  ....  1.0000e-04 Eh/bohr
Max. Displacement        TolMAXD  ....  4.0000e-03 bohr
RMS Displacement         TolRMSD  ....  2.0000e-03 bohr
Strict Convergence                ....  False
------------------------------------------------------------------------------
                        ORCA OPTIMIZATION COORDINATE SETUP
------------------------------------------------------------------------------

The optimization will be done in new redundant internal coordinates
Making redundant internal coordinates   ...  (new redundants) done
Evaluating the initial hessian          ...  (Almloef) done
Evaluating the coordinates              ...  done
Calculating the B-matrix                .... done
Calculating the G-matrix                .... done
Diagonalizing the G-matrix              .... done
The first mode is                       ....   14
The number of degrees of freedom        ....   12

    -----------------------------------------------------------------
                    Redundant Internal Coordinates


    -----------------------------------------------------------------
         Definition                    Initial Value    Approx d2E/dq
    -----------------------------------------------------------------
      1. B(Br  1,C   0)                  1.9401         0.278295   
      2. B(H   2,C   0)                  1.0952         0.353263   
      3. B(H   3,C   0)                  1.0952         0.353317   
      4. B(H   4,C   0)                  1.0956         0.352776   
      5. B(I   5,Br  1)                  4.5642         0.000061   
      6. B(I   5,H   2)                  3.9878         0.000029   
      7. B(I   5,C   0)                  4.4232         0.000030   
      8. B(I   5,H   4)                  4.1639         0.000015   
      9. A(H   3,C   0,H   4)          111.1816         0.289040   
     10. A(Br  1,C   0,H   2)          107.7727         0.326818   
     11. A(Br  1,C   0,H   4)          107.7662         0.326744   
     12. A(Br  1,C   0,H   3)          108.0693         0.326826   
     13. A(H   2,C   0,H   3)          111.1290         0.289103   
     14. A(Br  1,C   0,I   5)           81.6338         0.124859   
     15. A(H   2,C   0,I   5)           59.8795         0.119171   
     16. A(H   3,C   0,I   5)          169.0353         0.119172   
     17. A(H   4,C   0,I   5)           69.2917         0.119162   
     18. A(H   2,C   0,H   4)          110.7614         0.289033   
     19. A(C   0,Br  1,I   5)           73.4964         0.133927   
     20. A(C   0,I   5,Br  1)           24.8699         0.094700   
     21. D(I   5,Br  1,C   0,H   4)     65.0116         0.002532   
     22. D(I   5,Br  1,C   0,H   2)    -54.5651         0.002532   
     23. D(I   5,Br  1,C   0,H   3)   -174.7472         0.002532   
     24. D(Br  1,I   5,C   0,H   4)   -112.6632         0.001500   
     25. D(Br  1,I   5,C   0,H   3)    152.7687         0.001500   
     26. D(Br  1,I   5,C   0,H   2)    116.2321         0.001500   
    -----------------------------------------------------------------

Number of atoms                         .... 6
Number of degrees of freedom            .... 26

         *************************************************************
         *                GEOMETRY OPTIMIZATION CYCLE   1            *
         *************************************************************
---------------------------------
CARTESIAN COORDINATES (ANGSTROEM)
---------------------------------
  C     -0.986340    0.794380   -2.406600
  Br    -1.604360   -0.967190   -1.878300
  H     -1.228160    1.490420   -1.596320
  H     -1.501750    1.071720   -3.332260
  H      0.097110    0.736830   -2.558750
  I      1.124430    0.507600    1.469890

----------------------------
CARTESIAN COORDINATES (A.U.)
----------------------------
  NO LB      ZA    FRAG     MASS         X           Y           Z
   0 C     6.0000    0    12.011   -1.863912    1.501161   -4.547815
   1 Br   35.0000    0    79.900   -3.031801   -1.827724   -3.549473
   2 H     1.0000    0     1.008   -2.320886    2.816486   -3.016608
   3 H     1.0000    0     1.008   -2.837896    2.025257   -6.297059
   4 H     1.0000    0     1.008    0.183511    1.392407   -4.835337
   5 I    25.0000*   0   126.900    2.124865    0.959225    2.777690
* core charge reduced due to ECP

--------------------------------
INTERNAL COORDINATES (ANGSTROEM)
--------------------------------
 C      0   0   0     0.000000000000     0.00000000     0.00000000
 Br     1   0   0     1.940149085844     0.00000000     0.00000000
 H      1   2   0     1.095217910920   107.77267286     0.00000000
 H      1   2   3     1.095176414693   108.06934489   239.81785165
 H      1   2   3     1.095593687231   107.76619260   119.57669025
 I      3   1   2     3.987763611926   106.37792153    68.73961980

---------------------------
INTERNAL COORDINATES (A.U.)
---------------------------
 C      0   0   0     0.000000000000     0.00000000     0.00000000
 Br     1   0   0     3.666350431222     0.00000000     0.00000000
 H      1   2   0     2.069661908604   107.77267286     0.00000000
 H      1   2   3     2.069583492100   108.06934489   239.81785165
 H      1   2   3     2.070372022919   107.76619260   119.57669025
 I      3   1   2     7.535781113357   106.37792153    68.73961980

---------------------
BASIS SET INFORMATION
---------------------
There are 4 groups of distinct atoms

 Group   1 Type C   : 7s4p1d contracted to 3s2p1d pattern {511/31/1}
 Group   2 Type Br  : 14s10p6d contracted to 5s4p3d pattern {63311/5311/411}
 Group   3 Type H   : 4s1p contracted to 2s1p pattern {31/1}
 Group   4 Type I   : 10s7p6d contracted to 4s4p2d pattern {6211/4111/51}

Atom   0C    basis set group =>   1
Atom   1Br   basis set group =>   2
Atom   2H    basis set group =>   3
Atom   3H    basis set group =>   3
Atom   4H    basis set group =>   3
Atom   5I    basis set group =>   4
---------------------------------
AUXILIARY/J BASIS SET INFORMATION
---------------------------------
There are 4 groups of distinct atoms

 Group   1 Type C   : 12s5p4d2f1g contracted to 6s4p3d1f1g pattern {711111/2111/211/2/1}
 Group   2 Type Br  : 19s5p5d3f1g contracted to 8s4p3d2f1g pattern {121111111/2111/311/21/1}
 Group   3 Type H   : 5s2p1d contracted to 3s1p1d pattern {311/2/1}
 Group   4 Type I   : 11s5p5d3f1g contracted to 8s4p3d2f1g pattern {41111111/2111/311/21/1}

Atom   0C    basis set group =>   1
Atom   1Br   basis set group =>   2
Atom   2H    basis set group =>   3
Atom   3H    basis set group =>   3
Atom   4H    basis set group =>   3
Atom   5I    basis set group =>   4
-------------------------
ECP PARAMETER INFORMATION
-------------------------

 Group 1, Type I  ECP Def2-ECP (replacing 28 core electrons, lmax=3)

Atom   5I    ECP group =>   1

[1631719780.301915] [comp0805:224635:0]            sys.c:618  UCX  ERROR shmget(size=2097152 flags=0xfb0) for mm_recv_desc failed: Operation not permitted, please check shared memory limits by 'ipcs -l'
[1631719780.318335] [comp0805:224637:0]            sys.c:618  UCX  ERROR shmget(size=2097152 flags=0xfb0) for mm_recv_desc failed: Operation not permitted, please check shared memory limits by 'ipcs -l'
[1631719780.318508] [comp0805:224632:0]            sys.c:618  UCX  ERROR shmget(size=2097152 flags=0xfb0) for mm_recv_desc failed: Operation not permitted, please check shared memory limits by 'ipcs -l'
[1631719780.319064] [comp0805:224630:0]            sys.c:618  UCX  ERROR shmget(size=2097152 flags=0xfb0) for mm_recv_desc failed: Operation not permitted, please check shared memory limits by 'ipcs -l'
[1631719780.327279] [comp0805:224637:0]            sys.c:618  UCX  ERROR shmget(size=2097152 flags=0xb80) for ucp_am_bufs failed: Operation not permitted, please check shared memory limits by 'ipcs -l'
[1631719780.327833] [comp0805:224630:0]            sys.c:618  UCX  ERROR shmget(size=2097152 flags=0xb80) for ucp_am_bufs failed: Operation not permitted, please check shared memory limits by 'ipcs -l'
[1631719780.397662] [comp0805:224632:0]            sys.c:618  UCX  ERROR shmget(size=2097152 flags=0xb80) for ucp_am_bufs failed: Operation not permitted, please check shared memory limits by 'ipcs -l'
[1631719780.399335] [comp0805:224635:0]            sys.c:618  UCX  ERROR shmget(size=2097152 flags=0xb80) for ucp_am_bufs failed: Operation not permitted, please check shared memory limits by 'ipcs -l'


           ************************************************************
           *        Program running with 4 parallel MPI-processes     *
           *              working on a common directory               *
           ************************************************************
------------------------------------------------------------------------------
                           ORCA GTO INTEGRAL CALCULATION
                           -- RI-GTO INTEGRALS CHOSEN --
------------------------------------------------------------------------------

                         BASIS SET STATISTICS AND STARTUP INFO

Gaussian basis set:
 # of primitive gaussian shells          ...   80
 # of primitive gaussian functions       ...  180
 # of contracted shells                  ...   37
 # of contracted basis functions         ...   87
 Highest angular momentum                ...    2
 Maximum contraction depth               ...    6
Auxiliary gaussian basis set:
 # of primitive gaussian shells          ...  106
 # of primitive gaussian functions       ...  288
 # of contracted shells                  ...   66
 # of contracted aux-basis functions     ...  198
 Highest angular momentum                ...    4
 Maximum contraction depth               ...   12
Ratio of auxiliary to basis functions    ...  2.28
Integral package used                  ... LIBINT
 One Electron integrals                  
   ECP integrals                         ... done
 Ordering auxiliary basis shells         ... done
 Integral threshhold             Thresh  ...  2.500e-11
 Primitive cut-off               TCut    ...  2.500e-12
 Pre-screening matrix                    ... done
 Shell pair data                         ... 
 Ordering of the shell pairs             ... done (   0.000 sec) 640 of 703 pairs
 Determination of significant pairs      ... done (   0.000 sec)
 Creation of shell pair data             ... done (   0.000 sec)
 Storage of shell pair data              ... done (   0.002 sec)
 Shell pair data done in (   0.002 sec)
 Computing two index integrals           ... done
 Cholesky decomposition of the V-matrix  ... done


Timings:
 Total evaluation time                   ...   0.416 sec (  0.007 min)
 One electron matrix time                ...   0.057 sec (  0.001 min) = 13.7%
 Schwartz matrix evaluation time         ...   0.147 sec (  0.002 min) = 35.3%
 Two index repulsion integral time       ...   0.001 sec (  0.000 min) =  0.2%
 Cholesky decomposition of V             ...   0.166 sec (  0.003 min) = 40.0%
 Three index repulsion integral time     ...   0.000 sec (  0.000 min) =  0.0%

[1631719782.901499] [comp0805:224675:0]            sys.c:618  UCX  ERROR shmget(size=2097152 flags=0xfb0) for mm_recv_desc failed: Operation not permitted, please check shared memory limits by 'ipcs -l'
[1631719782.903695] [comp0805:224679:0]            sys.c:618  UCX  ERROR shmget(size=2097152 flags=0xfb0) for mm_recv_desc failed: Operation not permitted, please check shared memory limits by 'ipcs -l'
[1631719782.908486] [comp0805:224677:0]            sys.c:618  UCX  ERROR shmget(size=2097152 flags=0xfb0) for mm_recv_desc failed: Operation not permitted, please check shared memory limits by 'ipcs -l'
[1631719782.909271] [comp0805:224681:0]            sys.c:618  UCX  ERROR shmget(size=2097152 flags=0xfb0) for mm_recv_desc failed: Operation not permitted, please check shared memory limits by 'ipcs -l'
[1631719782.916691] [comp0805:224679:0]            sys.c:618  UCX  ERROR shmget(size=2097152 flags=0xb80) for ucp_am_bufs failed: Operation not permitted, please check shared memory limits by 'ipcs -l'
[1631719782.916686] [comp0805:224681:0]            sys.c:618  UCX  ERROR shmget(size=2097152 flags=0xb80) for ucp_am_bufs failed: Operation not permitted, please check shared memory limits by 'ipcs -l'


           ************************************************************
           *        Program running with 4 parallel MPI-processes     *
           *              working on a common directory               *
           ************************************************************
[1631719782.919262] [comp0805:224677:0]            sys.c:618  UCX  ERROR shmget(size=2097152 flags=0xb80) for ucp_am_bufs failed: Operation not permitted, please check shared memory limits by 'ipcs -l'
-------------------------------------------------------------------------------
                                 ORCA SCF
-------------------------------------------------------------------------------

------------
SCF SETTINGS
------------
Hamiltonian:
 Density Functional     Method          .... DFT(GTOs)
 Exchange Functional    Exchange        .... PBE
   PBE kappa parameter   XKappa         ....  0.804000
   PBE mue parameter    XMuePBE         ....  0.219520
 Correlation Functional Correlation     .... PBE
   PBE beta parameter  CBetaPBE         ....  0.066725
 LDA part of GGA corr.  LDAOpt          .... PW91-LDA
 Gradients option       PostSCFGGA      .... off
 Hybrid DFT is turned on
   Fraction HF Exchange ScalHFX         ....  0.250000
   Scaling of DF-GGA-X  ScalDFX         ....  0.750000
   Scaling of DF-GGA-C  ScalDFC         ....  1.000000
   Scaling of DF-LDA-C  ScalLDAC        ....  1.000000
   Perturbative correction              ....  0.000000
   Density functional embedding theory  .... OFF
   NL short-range parameter             ....  6.900000
 RI-approximation to the Coulomb term is turned on
   Number of auxiliary basis functions  .... 198
   RIJ-COSX (HFX calculated with COS-X)).... on


General Settings:
 Integral files         IntName         .... manual_reactants_348_opt
 Hartree-Fock type      HFTyp           .... RHF
 Total Charge           Charge          ....   -1
 Multiplicity           Mult            ....    1
 Number of Electrons    NEL             ....   70
 Basis Dimension        Dim             ....   87
 Nuclear Repulsion      ENuc            ....    217.3397769753 Eh

Convergence Acceleration:
 DIIS                   CNVDIIS         .... on
   Start iteration      DIISMaxIt       ....    12
   Startup error        DIISStart       ....  0.200000
   # of expansion vecs  DIISMaxEq       ....     5
   Bias factor          DIISBfac        ....   1.050
   Max. coefficient     DIISMaxC        ....  10.000
 Newton-Raphson         CNVNR           .... off
 SOSCF                  CNVSOSCF        .... on
   Start iteration      SOSCFMaxIt      ....   150
   Startup grad/error   SOSCFStart      ....  0.003300
 Level Shifting         CNVShift        .... on
   Level shift para.    LevelShift      ....    0.2500
   Turn off err/grad.   ShiftErr        ....    0.0010
 Zerner damping         CNVZerner       .... off
 Static damping         CNVDamp         .... on
   Fraction old density DampFac         ....    0.7000
   Max. Damping (<1)    DampMax         ....    0.9800
   Min. Damping (>=0)   DampMin         ....    0.0000
   Turn off err/grad.   DampErr         ....    0.1000
 Fernandez-Rico         CNVRico         .... off

SCF Procedure:
 Maximum # iterations   MaxIter         ....   250
 SCF integral mode      SCFMode         .... Direct
   Integral package                     .... LIBINT
 Reset frequency        DirectResetFreq ....    20
 Integral Threshold     Thresh          ....  2.500e-11 Eh
 Primitive CutOff       TCut            ....  2.500e-12 Eh

Convergence Tolerance:
 Convergence Check Mode ConvCheckMode   .... Total+1el-Energy
 Convergence forced     ConvForced      .... 0
 Energy Change          TolE            ....  1.000e-08 Eh
 1-El. energy change                    ....  1.000e-05 Eh
 Orbital Gradient       TolG            ....  1.000e-05
 Orbital Rotation angle TolX            ....  1.000e-05
 DIIS Error             TolErr          ....  5.000e-07


Diagonalization of the overlap matrix:
[1631719783.080420] [comp0805:224675:0]            sys.c:618  UCX  ERROR shmget(size=2097152 flags=0xb80) for ucp_am_bufs failed: Operation not permitted, please check shared memory limits by 'ipcs -l'
Smallest eigenvalue                        ... 1.033e-02
Time for diagonalization                   ...    0.160 sec
Threshold for overlap eigenvalues          ... 1.000e-08
Number of eigenvalues below threshold      ... 0
Time for construction of square roots      ...    0.001 sec
Total time needed                          ...    0.161 sec

-------------------
DFT GRID GENERATION
-------------------

General Integration Accuracy     IntAcc      ...  4.340
Radial Grid Type                 RadialGrid  ... Gauss-Chebyshev
Angular Grid (max. acc.)         AngularGrid ... Lebedev-110
Angular grid pruning method      GridPruning ... 3 (G Style)
Weight generation scheme         WeightScheme... Becke
Basis function cutoff            BFCut       ...    1.0000e-11
Integration weight cutoff        WCut        ...    1.0000e-14
Grids for H and He will be reduced by one unit

# of grid points (after initial pruning)     ...  10210 (   0.0 sec)
# of grid points (after weights+screening)   ...  10058 (   0.0 sec)
nearest neighbour list constructed           ...    0.0 sec
Grid point re-assignment to atoms done       ...    0.0 sec
Grid point division into batches done        ...    0.0 sec
Reduced shell lists constructed in    0.0 sec

Total number of grid points                  ...    10058
Total number of batches                      ...      161
Average number of points per batch           ...       62
Average number of grid points per atom       ...     1676
Average number of shells per batch           ...    26.83 (72.52%)
Average number of basis functions per batch  ...    62.74 (72.11%)
Average number of large shells per batch     ...    22.33 (83.23%)
Average number of large basis fcns per batch ...    51.38 (81.90%)
Maximum spatial batch extension              ...  18.96, 16.04, 22.23 au
Average spatial batch extension              ...   0.99,  0.95,  1.01 au

Time for grid setup =    0.048 sec

------------------------------
INITIAL GUESS: MODEL POTENTIAL
------------------------------
Loading Hartree-Fock densities                     ... done
  calling /usr/local/orca_4_2_1_linux_x86-64/orca manual_reactants_348_opt_atom53.inp > manual_reactants_348_opt_atom53.out in order to generate an atomic fitting density for atom 5 (I  with ECP) on-the-fly... 
    atom 5 (I ), assumed electronic state with S=2: 1s2 2s2 2p6 3s2 3p6 4s2 3d10 4p6 5s2 4d10 5p5           ... done
Calculating cut-offs                               ... done
Setting up the integral package                    ... done
Initializing the effective Hamiltonian             ... done
Starting the Coulomb interaction                   ... done (   0.0 sec)
Reading the grid                                   ... done
Mapping shells                                     ... done
Starting the XC term evaluation                    ... done (   0.0 sec)
  promolecular density results
     # of electrons  =     97.003036108
     EX              =   -268.349409424
     EC              =     -4.842919102
     EX+EC           =   -273.192328525
Transforming the Hamiltonian                       ... done (   0.0 sec)
Diagonalizing the Hamiltonian                      ... done (   0.0 sec)
Back transforming the eigenvectors                 ... done (   0.0 sec)
Now organizing SCF variables                       ... done
                      ------------------
                      INITIAL GUESS DONE (   5.9 sec)
                      ------------------
--------------------
COSX GRID GENERATION
--------------------

General Integration Accuracy     IntAcc      ...  3.340
Radial Grid Type                 RadialGrid  ... Gauss-Chebyshev
Angular Grid (max. acc.)         AngularGrid ... Lebedev-50
Angular grid pruning method      GridPruning ... 3 (G Style)
Weight generation scheme         WeightScheme... Becke
Basis function cutoff            BFCut       ...    1.0000e-11
Integration weight cutoff        WCut        ...    1.0000e-14
Grids for H and He will be reduced by one unit

# of grid points (after initial pruning)     ...   3812 (   0.0 sec)
# of grid points (after weights+screening)   ...   3749 (   0.0 sec)
nearest neighbour list constructed           ...    0.0 sec
Grid point re-assignment to atoms done       ...    0.0 sec
Grid point division into batches done        ...    0.0 sec
Reduced shell lists constructed in    0.0 sec

Total number of grid points                  ...     3749
Total number of batches                      ...       61
Average number of points per batch           ...       61
Average number of grid points per atom       ...      625
Average number of shells per batch           ...    27.35 (73.93%)
Average number of basis functions per batch  ...    65.00 (74.71%)
Average number of large shells per batch     ...    23.65 (86.45%)
Average number of large basis fcns per batch ...    54.47 (83.80%)
Maximum spatial batch extension              ...  19.28, 16.98, 17.20 au
Average spatial batch extension              ...   1.46,  1.28,  1.27 au

Overlap Fitting                  UseSFitting ... on
Constructing numerical overlap ... done (      0.0 sec)
Inverting numerical overlap    ... done (      0.0 sec)
Obtaining analytic overlap     ... done (      0.0 sec)
Final contraction and storage  ... done (      0.0 sec)


General Integration Accuracy     IntAcc      ...  3.670
Radial Grid Type                 RadialGrid  ... Gauss-Chebyshev
Angular Grid (max. acc.)         AngularGrid ... Lebedev-50
Angular grid pruning method      GridPruning ... 3 (G Style)
Weight generation scheme         WeightScheme... Becke
Basis function cutoff            BFCut       ...    1.0000e-11
Integration weight cutoff        WCut        ...    1.0000e-14
Grids for H and He will be reduced by one unit

# of grid points (after initial pruning)     ...   4614 (   0.0 sec)
# of grid points (after weights+screening)   ...   4536 (   0.0 sec)
nearest neighbour list constructed           ...    0.0 sec
Grid point re-assignment to atoms done       ...    0.0 sec
Grid point division into batches done        ...    0.0 sec
Reduced shell lists constructed in    0.0 sec

Total number of grid points                  ...     4536
Total number of batches                      ...       75
Average number of points per batch           ...       60
Average number of grid points per atom       ...      756
Average number of shells per batch           ...    26.95 (72.84%)
Average number of basis functions per batch  ...    63.45 (72.93%)
Average number of large shells per batch     ...    23.05 (85.53%)
Average number of large basis fcns per batch ...    52.45 (82.66%)
Maximum spatial batch extension              ...  20.64, 17.71, 22.48 au
Average spatial batch extension              ...   1.36,  1.14,  1.24 au

Overlap Fitting                  UseSFitting ... on
Constructing numerical overlap ... done (      0.0 sec)
Inverting numerical overlap    ... done (      0.0 sec)
Obtaining analytic overlap     ... done (      0.0 sec)
Final contraction and storage  ... done (      0.0 sec)


General Integration Accuracy     IntAcc      ...  4.010
Radial Grid Type                 RadialGrid  ... Gauss-Chebyshev
Angular Grid (max. acc.)         AngularGrid ... Lebedev-110
Angular grid pruning method      GridPruning ... 3 (G Style)
Weight generation scheme         WeightScheme... Becke
Basis function cutoff            BFCut       ...    1.0000e-11
Integration weight cutoff        WCut        ...    1.0000e-14
Grids for H and He will be reduced by one unit

# of grid points (after initial pruning)     ...   9004 (   0.0 sec)
# of grid points (after weights+screening)   ...   8875 (   0.0 sec)
nearest neighbour list constructed           ...    0.0 sec
Grid point re-assignment to atoms done       ...    0.0 sec
Grid point division into batches done        ...    0.0 sec
Reduced shell lists constructed in    0.0 sec

Total number of grid points                  ...     8875
Total number of batches                      ...      141
Average number of points per batch           ...       62
Average number of grid points per atom       ...     1479
Average number of shells per batch           ...    27.03 (73.05%)
Average number of basis functions per batch  ...    63.68 (73.19%)
Average number of large shells per batch     ...    22.68 (83.90%)
Average number of large basis fcns per batch ...    52.03 (81.71%)
Maximum spatial batch extension              ...  19.33, 16.00, 25.43 au
Average spatial batch extension              ...   1.01,  0.98,  1.08 au

Overlap Fitting                  UseSFitting ... on
Constructing numerical overlap ... done (      0.0 sec)
Inverting numerical overlap    ... done (      0.0 sec)
Obtaining analytic overlap     ... done (      0.0 sec)
Final contraction and storage  ... done (      0.0 sec)

Time for X-Grid setup             =    0.130 sec

--------------------
CPCM SOLVATION MODEL
--------------------
CPCM parameters:
  Epsilon                                         ...      20.7000
  Refrac                                          ...       1.3590
  Rsolv                                           ...       1.3000
  Surface type                                    ...    GEPOL SES
  Epsilon function type                           ...         CPCM
Radii:
 Radius for C  used is    3.7795 Bohr (=   2.0000 Ang.)
 Radius for Br used is    4.0818 Bohr (=   2.1600 Ang.)
 Radius for H  used is    2.4566 Bohr (=   1.3000 Ang.)
 Radius for I  used is    4.3842 Bohr (=   2.3200 Ang.)
Calculating surface                               ...        done! (  0.0s)
GEPOL surface points                              ...          330
GEPOL Volume                                      ...     835.5005
GEPOL Surface-area                                ...     510.1822
Calculating surface distance matrix               ...        done! (  0.0s)
Performing Cholesky decomposition & store         ...        done! (  0.0s)
Overall time for CPCM initialization              ...                 0.0s
--------------
SCF ITERATIONS
--------------
ITER       Energy         Delta-E        Max-DP      RMS-DP      [F,P]     Damp
               ***  Starting incremental Fock matrix formation  ***
  0  -2882.5322065557   0.000000000000 1.83858636  0.05778840  1.0327939 0.7000
  1  -2893.9859590744 -11.453752518696 1.15594180  0.04091172  0.6672747 0.7000
  2  -2898.6564996933  -4.670540618856 0.56359472  0.01920097  0.4366560 0.7000
  3  -2902.4614831099  -3.804983416668 0.35936719  0.01456707  0.2821708 0.7000
  4  -2905.0703920389  -2.608908928955 0.34545786  0.01126349  0.2161836 0.7000
                               ***Turning on DIIS***
  5  -2906.9047525215  -1.834360482585 0.30382691  0.00865427  0.1671637 0.7000
  6  -2908.2004941338  -1.295741612363 0.27327356  0.00686867  0.1302667 0.7000
  7  -2909.1140929433  -0.913598809485 0.65222489  0.01631711  0.0889893 0.0000
  8  -2911.2684042157  -2.154311272371 0.02213410  0.00067878  0.0060697 0.0000
                      *** Initiating the SOSCF procedure ***
                           *** Shutting down DIIS ***
                      *** Re-Reading the Fockian *** 
                      *** Removing any level shift *** 
ITER      Energy       Delta-E        Grad      Rot      Max-DP    RMS-DP
  9  -2911.26859680  -0.0001925858  0.001150  0.001150  0.007834  0.000249
               *** Restarting incremental Fock matrix formation ***
 10  -2911.26865124  -0.0000544358  0.000587  0.001944  0.007960  0.000207
 11  -2911.26865846  -0.0000072179  0.000165  0.000472  0.001799  0.000049
 12  -2911.26865848  -0.0000000247  0.000145  0.000181  0.000548  0.000016
 13  -2911.26865874  -0.0000002603  0.000023  0.000038  0.000161  0.000005
 14  -2911.26865874   0.0000000009  0.000018  0.000018  0.000078  0.000002
                  ***Gradient check signals convergence***
              ***Rediagonalizing the Fockian in SOSCF/NRSCF***

               *****************************************************
               *                     SUCCESS                       *
               *           SCF CONVERGED AFTER  15 CYCLES          *
               *****************************************************

Setting up the final grid:

General Integration Accuracy     IntAcc      ...  4.670
Radial Grid Type                 RadialGrid  ... Gauss-Chebyshev
Angular Grid (max. acc.)         AngularGrid ... Lebedev-302
Angular grid pruning method      GridPruning ... 3 (G Style)
Weight generation scheme         WeightScheme... Becke
Basis function cutoff            BFCut       ...    1.0000e-11
Integration weight cutoff        WCut        ...    1.0000e-14
Grids for H and He will be reduced by one unit

# of grid points (after initial pruning)     ...  36752 (   0.0 sec)
# of grid points (after weights+screening)   ...  36025 (   0.0 sec)
nearest neighbour list constructed           ...    0.0 sec
Grid point re-assignment to atoms done       ...    0.0 sec
Grid point division into batches done        ...    0.2 sec
Reduced shell lists constructed in    0.2 sec

Total number of grid points                  ...    36025
Total number of batches                      ...      566
Average number of points per batch           ...       63
Average number of grid points per atom       ...     6004
Average number of shells per batch           ...    24.66 (66.66%)
Average number of basis functions per batch  ...    57.50 (66.10%)
Average number of large shells per batch     ...    20.08 (81.43%)
Average number of large basis fcns per batch ...    45.57 (79.24%)
Maximum spatial batch extension              ...  18.14, 17.14, 17.37 au
Average spatial batch extension              ...   0.71,  0.68,  0.69 au

Final grid set up in    0.3 sec
Final integration                            ... done (   0.1 sec)
Change in XC energy                          ...     0.000141598
Integrated number of electrons               ...    69.999988191
Previous integrated no of electrons          ...    70.001473550
Old exchange energy                            =    -29.307437935 Eh
New exchange energy                            =    -29.307678552 Eh
Exchange energy change after final integration =     -0.000240618 Eh
Total energy after final integration           =  -2911.268757789 Eh
Final COS-X integration done in                =     0.323 sec

----------------
TOTAL SCF ENERGY
----------------

Total Energy       :        -2911.26875779 Eh          -79219.65035 eV

Components:
Nuclear Repulsion  :          217.33977698 Eh            5914.11600 eV
Electronic Energy  :        -3128.60853476 Eh          -85133.76635 eV
One Electron Energy:        -4600.14318155 Eh         -125176.25981 eV
Two Electron Energy:         1471.53464678 Eh           40042.49346 eV
CPCM Dielectric    :           -0.10301361 Eh              -2.80314 eV

Virial components:
Potential Energy   :        -5635.37716991 Eh         -153346.40877 eV
Kinetic Energy     :         2724.10841212 Eh           74126.75843 eV
Virial Ratio       :            2.06870518


DFT components:
N(Alpha)           :       34.999994095270 electrons
N(Beta)            :       34.999994095270 electrons
N(Total)           :       69.999988190540 electrons
E(X)               :      -87.525568645244 Eh       
E(C)               :       -3.167136699265 Eh       
E(XC)              :      -90.692705344509 Eh       
DFET-embed. en.    :        0.000000000000 Eh       
CPCM Solvation Model Properties:
Surface-charge          :            0.96775248
Charge-correction       :           -0.00438260 Eh              -0.11926 eV
Free-energy (cav+disp)  :            0.00364510 Eh               0.09919 eV
Corrected G(solv)       :        -2911.26949529 Eh          -79219.67042 eV

---------------
SCF CONVERGENCE
---------------

  Last Energy change         ...   -2.9368e-08  Tolerance :   1.0000e-08
  Last MAX-Density change    ...    3.9968e-15  Tolerance :   1.0000e-07
  Last RMS-Density change    ...    1.3931e-16  Tolerance :   5.0000e-09
  Last Orbital Gradient      ...    9.6850e-07  Tolerance :   1.0000e-05
  Last Orbital Rotation      ...    1.2808e-06  Tolerance :   1.0000e-05

             **** THE GBW FILE WAS UPDATED (manual_reactants_348_opt.gbw) ****
             **** DENSITY FILE WAS UPDATED (manual_reactants_348_opt.scfp) ****
             **** ENERGY FILE WAS UPDATED (manual_reactants_348_opt.en.tmp) ****
             **** THE GBW FILE WAS UPDATED (manual_reactants_348_opt.gbw) ****
             **** DENSITY FILE WAS UPDATED (manual_reactants_348_opt.scfp) ****
----------------
ORBITAL ENERGIES
----------------

  NO   OCC          E(Eh)            E(eV) 
   0   2.0000    -483.175153    -13147.8643 
   1   2.0000     -62.611441     -1703.7439 
   2   2.0000     -56.400697     -1534.7410 
   3   2.0000     -56.398286     -1534.6754 
   4   2.0000     -56.398184     -1534.6726 
   5   2.0000     -10.271131      -279.4917 
   6   2.0000      -8.756857      -238.2862 
   7   2.0000      -6.799986      -185.0370 
   8   2.0000      -6.571624      -178.8230 
   9   2.0000      -6.558832      -178.4749 
  10   2.0000      -6.558615      -178.4690 
  11   2.0000      -4.807554      -130.8202 
  12   2.0000      -4.807523      -130.8194 
  13   2.0000      -4.807304      -130.8134 
  14   2.0000      -2.657127       -72.3041 
  15   2.0000      -2.653615       -72.2085 
  16   2.0000      -2.653346       -72.2012 
  17   2.0000      -2.643014       -71.9201 
  18   2.0000      -2.642977       -71.9190 
  19   2.0000      -1.834757       -49.9263 
  20   2.0000      -1.834754       -49.9262 
  21   2.0000      -1.834559       -49.9209 
  22   2.0000      -1.834527       -49.9200 
  23   2.0000      -1.834462       -49.9182 
  24   2.0000      -0.814693       -22.1689 
  25   2.0000      -0.667523       -18.1642 
  26   2.0000      -0.605000       -16.4629 
  27   2.0000      -0.438878       -11.9425 
  28   2.0000      -0.438074       -11.9206 
  29   2.0000      -0.390176       -10.6172 
  30   2.0000      -0.283196        -7.7062 
  31   2.0000      -0.282280        -7.6812 
  32   2.0000      -0.214079        -5.8254 
  33   2.0000      -0.213673        -5.8143 
  34   2.0000      -0.210812        -5.7365 
  35   0.0000       0.023370         0.6359 
  36   0.0000       0.104691         2.8488 
  37   0.0000       0.148495         4.0408 
  38   0.0000       0.148997         4.0544 
  39   0.0000       0.302447         8.2300 
  40   0.0000       0.353360         9.6154 
  41   0.0000       0.391598        10.6559 
  42   0.0000       0.404740        11.0135 
  43   0.0000       0.446653        12.1541 
  44   0.0000       0.458814        12.4850 
  45   0.0000       0.460057        12.5188 
  46   0.0000       0.484765        13.1911 
  47   0.0000       0.505509        13.7556 
  48   0.0000       0.505993        13.7688 
  49   0.0000       0.506786        13.7904 
  50   0.0000       0.507259        13.8032 
  51   0.0000       0.509692        13.8694 
  52   0.0000       0.547942        14.9103 
  53   0.0000       0.555203        15.1079 
  54   0.0000       0.605220        16.4689 
  55   0.0000       0.612112        16.6564 
  56   0.0000       0.631292        17.1783 
  57   0.0000       0.682142        18.5620 
  58   0.0000       0.689364        18.7586 
  59   0.0000       0.696513        18.9531 
  60   0.0000       0.706118        19.2144 
  61   0.0000       0.708539        19.2803 
  62   0.0000       0.792945        21.5771 
  63   0.0000       1.047400        28.5012 
  64   0.0000       1.245832        33.9008 
  65   0.0000       1.247981        33.9593 
  66   0.0000       1.521675        41.4069 
  67   0.0000       1.729212        47.0543 
  68   0.0000       1.736054        47.2404 
  69   0.0000       1.823878        49.6302 
  70   0.0000       1.970277        53.6140 
  71   0.0000       1.972908        53.6856 
  72   0.0000       2.162047        58.8323 
  73   0.0000       2.416542        65.7575 
  74   0.0000       2.418622        65.8141 
  75   0.0000       2.715739        73.8990 
  76   0.0000       2.902546        78.9823 
  77   0.0000       2.904380        79.0322 
  78   0.0000       3.469220        94.4023 
  79   0.0000       3.469585        94.4122 
  80   0.0000       3.551853        96.6508 
  81   0.0000       3.553324        96.6909 
  82   0.0000       3.771209       102.6198 
  83   0.0000      18.660031       507.7653 
  84   0.0000      18.661363       507.8015 
  85   0.0000      18.699294       508.8337 
  86   0.0000      55.861630      1520.0722 

                    ********************************
                    * MULLIKEN POPULATION ANALYSIS *
                    ********************************

-----------------------
MULLIKEN ATOMIC CHARGES
-----------------------
   0 C :   -0.130057
   1 Br:   -0.216381
   2 H :    0.113300
   3 H :    0.110678
   4 H :    0.114199
   5 I :   -0.991740
Sum of atomic charges:   -1.0000000

--------------------------------
MULLIKEN REDUCED ORBITAL CHARGES
--------------------------------
  0 C s       :     3.147554  s :     3.147554
      pz      :     1.062512  p :     2.955767
      px      :     1.058471
      py      :     0.834785
      dz2     :     0.004853  d :     0.026736
      dxz     :     0.003782
      dyz     :     0.006818
      dx2y2   :     0.007643
      dxy     :     0.003640
  1 Brs       :     7.973978  s :     7.973978
      pz      :     5.933312  p :    17.194879
      px      :     5.909463
      py      :     5.352103
      dz2     :     2.006167  d :    10.047523
      dxz     :     2.001990
      dyz     :     2.012044
      dx2y2   :     2.015196
      dxy     :     2.012126
  2 H s       :     0.862499  s :     0.862499
      pz      :     0.010888  p :     0.024201
      px      :     0.005064
      py      :     0.008249
  3 H s       :     0.865149  s :     0.865149
      pz      :     0.012731  p :     0.024173
      px      :     0.007030
      py      :     0.004412
  4 H s       :     0.861597  s :     0.861597
      pz      :     0.004900  p :     0.024204
      px      :     0.015721
      py      :     0.003583
  5 I s       :     4.000295  s :     4.000295
      pz      :     3.994589  p :    11.991279
      px      :     3.997486
      py      :     3.999204
      dz2     :     2.000025  d :    10.000166
      dxz     :     2.000078
      dyz     :     2.000032
      dx2y2   :     2.000007
      dxy     :     2.000023


                     *******************************
                     * LOEWDIN POPULATION ANALYSIS *
                     *******************************

----------------------
LOEWDIN ATOMIC CHARGES
----------------------
   0 C :   -0.108867
   1 Br:   -0.027426
   2 H :    0.041935
   3 H :    0.042221
   4 H :    0.043267
   5 I :   -0.991130

-------------------------------
LOEWDIN REDUCED ORBITAL CHARGES
-------------------------------
  0 C s       :     2.914855  s :     2.914855
      pz      :     1.099516  p :     3.129461
      px      :     1.094607
      py      :     0.935337
      dz2     :     0.011786  d :     0.064551
      dxz     :     0.009115
      dyz     :     0.016915
      dx2y2   :     0.018863
      dxy     :     0.007873
  1 Brs       :     7.823199  s :     7.823199
      pz      :     5.911655  p :    17.147648
      px      :     5.889947
      py      :     5.346045
      dz2     :     2.007403  d :    10.056579
      dxz     :     2.002305
      dyz     :     2.014041
      dx2y2   :     2.018396
      dxy     :     2.014434
  2 H s       :     0.887100  s :     0.887100
      pz      :     0.030887  p :     0.070965
      px      :     0.014070
      py      :     0.026008
  3 H s       :     0.887171  s :     0.887171
      pz      :     0.037162  p :     0.070609
      px      :     0.019649
      py      :     0.013798
  4 H s       :     0.885995  s :     0.885995
      pz      :     0.013395  p :     0.070737
      px      :     0.046368
      py      :     0.010975
  5 I s       :     4.000040  s :     4.000040
      pz      :     3.993955  p :    11.990939
      px      :     3.997580
      py      :     3.999404
      dz2     :     2.000019  d :    10.000151
      dxz     :     2.000069
      dyz     :     2.000033
      dx2y2   :     2.000006
      dxy     :     2.000024


                      *****************************
                      * MAYER POPULATION ANALYSIS *
                      *****************************

  NA   - Mulliken gross atomic population
  ZA   - Total nuclear charge
  QA   - Mulliken gross atomic charge
  VA   - Mayer's total valence
  BVA  - Mayer's bonded valence
  FA   - Mayer's free valence

  ATOM       NA         ZA         QA         VA         BVA        FA
  0 C      6.1301     6.0000    -0.1301     3.8855     3.8855    -0.0000
  1 Br    35.2164    35.0000    -0.2164     1.0093     1.0093     0.0000
  2 H      0.8867     1.0000     0.1133     0.9808     0.9808    -0.0000
  3 H      0.8893     1.0000     0.1107     0.9724     0.9724     0.0000
  4 H      0.8858     1.0000     0.1142     0.9778     0.9778    -0.0000
  5 I     25.9917    25.0000    -0.9917     0.0224     0.0224     0.0000

  Mayer bond orders larger than 0.100000
B(  0-C ,  1-Br) :   0.9852 B(  0-C ,  2-H ) :   0.9675 B(  0-C ,  3-H ) :   0.9683 
B(  0-C ,  4-H ) :   0.9683 


------------------
HIRSHFELD ANALYSIS
------------------

Total integrated alpha density =     35.000736775
Total integrated beta density  =     35.000736775

  ATOM     CHARGE      SPIN    
   0 C   -0.022788    0.000000
   1 Br  -0.152985    0.000000
   2 H    0.046588    0.000000
   3 H    0.051985    0.000000
   4 H    0.049520    0.000000
   5 I   -0.973793    0.000000

  TOTAL  -1.001474    0.000000

-------
TIMINGS
-------

Total SCF time: 0 days 0 hours 0 min 14 sec 

Total time                  ....      14.004 sec
Sum of individual times     ....      13.690 sec  ( 97.8%)

Fock matrix formation       ....       7.352 sec  ( 52.5%)
  Split-RI-J                ....       1.547 sec  ( 21.0% of F)
  Chain of spheres X        ....       2.704 sec  ( 36.8% of F)
  COS-X 1 center corr.      ....       0.000 sec  (  0.0% of F)
  XC integration            ....       0.301 sec  (  4.1% of F)
    Basis function eval.    ....       0.106 sec  ( 35.2% of XC)
    Density eval.           ....       0.043 sec  ( 14.2% of XC)
    XC-Functional eval.     ....       0.040 sec  ( 13.3% of XC)
    XC-Potential eval.      ....       0.053 sec  ( 17.6% of XC)
Diagonalization             ....       0.009 sec  (  0.1%)
Density matrix formation    ....       0.002 sec  (  0.0%)
Population analysis         ....       0.014 sec  (  0.1%)
Initial guess               ....       5.844 sec  ( 41.7%)
Orbital Transformation      ....       0.000 sec  (  0.0%)
Orbital Orthonormalization  ....       0.000 sec  (  0.0%)
DIIS solution               ....       0.003 sec  (  0.0%)
SOSCF solution              ....       0.004 sec  (  0.0%)
Grid generation             ....       0.462 sec  (  3.3%)


-------------------------------------------------------------------------------
                          DFT DISPERSION CORRECTION                            
                                                                               
                              DFTD3 V3.1  Rev 1                                
                          USING Becke-Johnson damping                          
-------------------------------------------------------------------------------
The PBE0 functional is recognized
Active option DFTDOPT                   ...         4   

molecular C6(AA) [au] = 1702.019393 


            DFT-D V3
 parameters
 s6 scaling factor         :     1.0000 
 a1 scaling factor         :     0.4145 
 s8 scaling factor         :     1.2177 
 a2 scaling factor         :     4.8593 
 ad hoc parameters k1-k3   :    16.0000     1.3333    -4.0000 

 Edisp/kcal,au: -2.104989164714  -0.003354513401 
 E6   /kcal   :  -1.171008440 
 E8   /kcal   :  -0.933980725 
 % E8         :  44.369859023 

-------------------------   ----------------
Dispersion correction           -0.003354513
-------------------------   ----------------


-------------------------   --------------------
FINAL SINGLE POINT ENERGY     -2911.272112301934
-------------------------   --------------------

[1631719797.884592] [comp0805:224760:0]            sys.c:618  UCX  ERROR shmget(size=2097152 flags=0xfb0) for mm_recv_desc failed: Operation not permitted, please check shared memory limits by 'ipcs -l'
[1631719797.897015] [comp0805:224762:0]            sys.c:618  UCX  ERROR shmget(size=2097152 flags=0xfb0) for mm_recv_desc failed: Operation not permitted, please check shared memory limits by 'ipcs -l'
[1631719797.922005] [comp0805:224763:0]            sys.c:618  UCX  ERROR shmget(size=2097152 flags=0xfb0) for mm_recv_desc failed: Operation not permitted, please check shared memory limits by 'ipcs -l'
[1631719797.922212] [comp0805:224761:0]            sys.c:618  UCX  ERROR shmget(size=2097152 flags=0xfb0) for mm_recv_desc failed: Operation not permitted, please check shared memory limits by 'ipcs -l'
[1631719797.931355] [comp0805:224760:0]            sys.c:618  UCX  ERROR shmget(size=2097152 flags=0xb80) for ucp_am_bufs failed: Operation not permitted, please check shared memory limits by 'ipcs -l'
[1631719797.932230] [comp0805:224761:0]            sys.c:618  UCX  ERROR shmget(size=2097152 flags=0xb80) for ucp_am_bufs failed: Operation not permitted, please check shared memory limits by 'ipcs -l'


           ************************************************************
           *        Program running with 4 parallel MPI-processes     *
           *              working on a common directory               *
           ************************************************************
[1631719797.939295] [comp0805:224762:0]            sys.c:618  UCX  ERROR shmget(size=2097152 flags=0xb80) for ucp_am_bufs failed: Operation not permitted, please check shared memory limits by 'ipcs -l'
------------------------------------------------------------------------------
                         ORCA SCF GRADIENT CALCULATION
------------------------------------------------------------------------------

Gradient of the Kohn-Sham DFT energy:
Kohn-Sham wavefunction type      ... RKS
Hartree-Fock exchange scaling    ...    0.250
Number of operators              ...    1
Number of atoms                  ...    6
Basis set dimensions             ...   87
Integral neglect threshold       ... 2.5e-11
Integral primitive cutoff        ... 2.5e-12

[1631719798.234277] [comp0805:224763:0]            sys.c:618  UCX  ERROR shmget(size=2097152 flags=0xb80) for ucp_am_bufs failed: Operation not permitted, please check shared memory limits by 'ipcs -l'
Nuclear repulsion gradient       ... done
One Electron Gradient            
  ECP gradient                   ... done
Pre-screening matrix             ... done
RI-J gradient                    ... done
COSX-gradient                    ... done
Exchange-correlation gradient    ... done
Dispersion correction            ... done

------------------
CARTESIAN GRADIENT
------------------

   1   C   :    0.000159194   -0.000062518   -0.000396360
   2   Br  :   -0.000266126   -0.000268951   -0.000003129
   3   H   :   -0.000082243    0.000255090   -0.000136370
   4   H   :    0.000262873    0.000156614   -0.000152881
   5   H   :    0.000314905   -0.000240506   -0.000251754
   6   I   :   -0.000116069   -0.000301708    0.000540411

Difference to translation invariance:
           :    0.0002725344   -0.0004619787   -0.0004000841

Norm of the cartesian gradient     ...    0.0010741909
RMS gradient                       ...    0.0002531892
MAX gradient                       ...    0.0005404105

-------
TIMINGS
-------

Total SCF gradient time            ...        1.242 sec

One electron gradient       ....       0.055 sec  (  4.4%)
Prescreening matrices       ....       0.164 sec  ( 13.2%)
RI-J Coulomb gradient       ....       0.155 sec  ( 12.5%)
COSX gradient               ....       0.345 sec  ( 27.8%)
XC gradient                 ....       0.146 sec  ( 11.7%)
CPCM gradient               ....       0.114 sec  (  9.2%)
   A-Matrix (El+Nuc)        ....       0.003 sec  (  0.3%)
   Potential                ....       0.111 sec  (  8.9%)
------------------------------------------------------------------------------
                         ORCA GEOMETRY RELAXATION STEP
------------------------------------------------------------------------------

Reading the OPT-File                    .... done
Getting information on internals        .... done
Copying old internal coords+grads       .... done
Making the new internal coordinates     .... (new redundants).... done
Validating the new internal coordinates .... (new redundants).... done
Calculating the B-matrix                .... done
Calculating the G,G- and P matrices     .... done
Transforming gradient to internals      .... done
Projecting the internal gradient        .... done
Number of atoms                         ....   6
Number of internal coordinates          ....  26
Current Energy                          .... -2911.272112302 Eh
Current gradient norm                   ....     0.001074191 Eh/bohr
Maximum allowed component of the step   ....  0.300
Current trust radius                    ....  0.300
Evaluating the initial hessian          ....  (Almloef) done
Projecting the Hessian                  .... done
Forming the augmented Hessian           .... done
Diagonalizing the augmented Hessian     .... done
Last element of RFO vector              ....  0.811832089
Lowest eigenvalues of augmented Hessian:
 -0.000169771  0.000322959  0.005639362  0.023258079  0.052127776
Length of the computed step             ....  0.719226269
Warning: the length of the step is outside the trust region - taking restricted step instead
The input lambda is                     ....    -0.000170
   iter:   1  x=   -0.000304  g= 3185.123865 f(x)=     0.427286
   iter:   2  x=   -0.000454  g= 1128.869562 f(x)=     0.169103
   iter:   3  x=   -0.000572  g=  483.743086 f(x)=     0.057301
   iter:   4  x=   -0.000619  g=  283.768700 f(x)=     0.013241
   iter:   5  x=   -0.000624  g=  235.473163 f(x)=     0.001173
   iter:   6  x=   -0.000624  g=  230.982169 f(x)=     0.000011
   iter:   7  x=   -0.000624  g=  230.938873 f(x)=     0.000000
   iter:   8  x=   -0.000624  g=  230.938869 f(x)=     0.000000
The output lambda is                    ....    -0.000624 (8 iterations)
The final length of the internal step   ....  0.300000000
Converting the step to cartesian space:
 Initial RMS(Int)=    0.0588348405
Transforming coordinates:
 Iter   0:  RMS(Cart)=    0.0333855197 RMS(Int)=    0.0587967035
 Iter   1:  RMS(Cart)=    0.0000307448 RMS(Int)=    0.0000458628
 Iter   2:  RMS(Cart)=    0.0000000476 RMS(Int)=    0.0000000484
done
Storing new coordinates                 .... done

                                .--------------------.
          ----------------------|Geometry convergence|-------------------------
          Item                value                   Tolerance       Converged
          ---------------------------------------------------------------------
          RMS gradient        0.0001180919            0.0001000000      NO
          MAX gradient        0.0003464856            0.0003000000      NO
          RMS step            0.0588348405            0.0020000000      NO
          MAX step            0.1546221211            0.0040000000      NO
          ........................................................
          Max(Bonds)      0.0818      Max(Angles)    0.43
          Max(Dihed)        0.05      Max(Improp)    0.00
          ---------------------------------------------------------------------

The optimization has not yet converged - more geometry cycles are needed


    ---------------------------------------------------------------------------
                         Redundant Internal Coordinates
                            (Angstroem and degrees)

        Definition                    Value    dE/dq     Step     New-Value
    ----------------------------------------------------------------------------
     1. B(Br  1,C   0)                1.9401  0.000346 -0.0010    1.9392   
     2. B(H   2,C   0)                1.0952  0.000265 -0.0004    1.0948   
     3. B(H   3,C   0)                1.0952  0.000039 -0.0001    1.0951   
     4. B(H   4,C   0)                1.0956  0.000216 -0.0003    1.0953   
     5. B(I   5,Br  1)                4.5642  0.000025 -0.0765    4.4877   
     6. B(I   5,H   2)                3.9878  0.000152 -0.0792    3.9086   
     7. B(I   5,C   0)                4.4232  0.000120 -0.0818    4.3414   
     8. B(I   5,H   4)                4.1639  0.000173 -0.0797    4.0842   
     9. A(H   3,C   0,H   4)          111.18 -0.000037    0.02    111.20   
    10. A(Br  1,C   0,H   2)          107.77 -0.000004   -0.02    107.76   
    11. A(Br  1,C   0,H   4)          107.77 -0.000012   -0.01    107.75   
    12. A(Br  1,C   0,H   3)          108.07  0.000125    0.00    108.07   
    13. A(H   2,C   0,H   3)          111.13 -0.000126    0.04    111.17   
    14. A(Br  1,C   0,I   5)           81.63 -0.000052   -0.06     81.57   
    15. A(H   2,C   0,I   5)           59.88  0.000055    0.01     59.89   
    16. A(H   3,C   0,I   5)          169.04 -0.000083    0.07    169.10   
    17. A(H   4,C   0,I   5)           69.29  0.000039   -0.02     69.27   
    18. A(H   2,C   0,H   4)          110.76  0.000060   -0.04    110.72   
    19. A(C   0,Br  1,I   5)           73.50  0.000013   -0.37     73.13   
    20. A(C   0,I   5,Br  1)           24.87  0.000039    0.43     25.30   
    21. D(I   5,Br  1,C   0,H   4)     65.01  0.000025   -0.05     64.96   
    22. D(I   5,Br  1,C   0,H   2)    -54.57 -0.000038    0.01    -54.55   
    23. D(I   5,Br  1,C   0,H   3)   -174.75  0.000044   -0.03   -174.78   
    24. D(Br  1,I   5,C   0,H   4)   -112.66  0.000002   -0.02   -112.69   
    25. D(Br  1,I   5,C   0,H   3)    152.77 -0.000005   -0.00    152.77   
    26. D(Br  1,I   5,C   0,H   2)    116.23  0.000008    0.02    116.25   
    ----------------------------------------------------------------------------

         *************************************************************
         *                GEOMETRY OPTIMIZATION CYCLE   2            *
         *************************************************************
---------------------------------
CARTESIAN COORDINATES (ANGSTROEM)
---------------------------------
  C     -0.979803    0.794033   -2.394814
  Br    -1.597190   -0.966624   -1.866292
  H     -1.221368    1.489687   -1.584625
  H     -1.494937    1.070921   -3.320695
  H      0.103444    0.736574   -2.546214
  I      1.090784    0.509168    1.410300

----------------------------
CARTESIAN COORDINATES (A.U.)
----------------------------
  NO LB      ZA    FRAG     MASS         X           Y           Z
   0 C     6.0000    0    12.011   -1.851560    1.500505   -4.525543
   1 Br   35.0000    0    79.900   -3.018252   -1.826655   -3.526781
   2 H     1.0000    0     1.008   -2.308050    2.815101   -2.994508
   3 H     1.0000    0     1.008   -2.825021    2.023747   -6.275203
   4 H     1.0000    0     1.008    0.195481    1.391924   -4.811647
   5 I    25.0000*   0   126.900    2.061282    0.962188    2.665081
* core charge reduced due to ECP

--------------------------------
INTERNAL COORDINATES (ANGSTROEM)
--------------------------------
 C      0   0   0     0.000000000000     0.00000000     0.00000000
 Br     1   0   0     1.939179431163     0.00000000     0.00000000
 H      1   2   0     1.094849013534   107.75585129     0.00000000
 H      1   2   3     1.095117848837   108.07316913   239.77125109
 H      1   2   3     1.095284597454   107.75334830   119.51374347
 I      3   1   2     3.908585437230   106.08752857    68.67468414

---------------------------
INTERNAL COORDINATES (A.U.)
---------------------------
 C      0   0   0     0.000000000000     0.00000000     0.00000000
 Br     1   0   0     3.664518049431     0.00000000     0.00000000
 H      1   2   0     2.068964793572   107.75585129     0.00000000
 H      1   2   3     2.069472818672   108.07316913   239.77125109
 H      1   2   3     2.069787927890   107.75334830   119.51374347
 I      3   1   2     7.386156047398   106.08752857    68.67468414

[1631719800.227701] [comp0805:224809:0]            sys.c:618  UCX  ERROR shmget(size=2097152 flags=0xfb0) for mm_recv_desc failed: Operation not permitted, please check shared memory limits by 'ipcs -l'
[1631719800.228816] [comp0805:224807:0]            sys.c:618  UCX  ERROR shmget(size=2097152 flags=0xfb0) for mm_recv_desc failed: Operation not permitted, please check shared memory limits by 'ipcs -l'
[1631719800.241522] [comp0805:224810:0]            sys.c:618  UCX  ERROR shmget(size=2097152 flags=0xfb0) for mm_recv_desc failed: Operation not permitted, please check shared memory limits by 'ipcs -l'
[1631719800.251200] [comp0805:224808:0]            sys.c:618  UCX  ERROR shmget(size=2097152 flags=0xfb0) for mm_recv_desc failed: Operation not permitted, please check shared memory limits by 'ipcs -l'
[1631719800.259752] [comp0805:224809:0]            sys.c:618  UCX  ERROR shmget(size=2097152 flags=0xb80) for ucp_am_bufs failed: Operation not permitted, please check shared memory limits by 'ipcs -l'
[1631719800.260579] [comp0805:224810:0]            sys.c:618  UCX  ERROR shmget(size=2097152 flags=0xb80) for ucp_am_bufs failed: Operation not permitted, please check shared memory limits by 'ipcs -l'


           ************************************************************
           *        Program running with 4 parallel MPI-processes     *
           *              working on a common directory               *
           ************************************************************
 One Electron integrals                  [1631719800.312210] [comp0805:224808:0]            sys.c:618  UCX  ERROR shmget(size=2097152 flags=0xb80) for ucp_am_bufs failed: Operation not permitted, please check shared memory limits by 'ipcs -l'
[1631719800.312263] [comp0805:224807:0]            sys.c:618  UCX  ERROR shmget(size=2097152 flags=0xb80) for ucp_am_bufs failed: Operation not permitted, please check shared memory limits by 'ipcs -l'
... done
 Pre-screening matrix                    ... done
[1631719801.387818] [comp0805:224830:0]            sys.c:618  UCX  ERROR shmget(size=2097152 flags=0xfb0) for mm_recv_desc failed: Operation not permitted, please check shared memory limits by 'ipcs -l'
[1631719801.390952] [comp0805:224832:0]            sys.c:618  UCX  ERROR shmget(size=2097152 flags=0xfb0) for mm_recv_desc failed: Operation not permitted, please check shared memory limits by 'ipcs -l'
[1631719801.417032] [comp0805:224833:0]            sys.c:618  UCX  ERROR shmget(size=2097152 flags=0xfb0) for mm_recv_desc failed: Operation not permitted, please check shared memory limits by 'ipcs -l'
[1631719801.417219] [comp0805:224831:0]            sys.c:618  UCX  ERROR shmget(size=2097152 flags=0xfb0) for mm_recv_desc failed: Operation not permitted, please check shared memory limits by 'ipcs -l'
[1631719801.425792] [comp0805:224830:0]            sys.c:618  UCX  ERROR shmget(size=2097152 flags=0xb80) for ucp_am_bufs failed: Operation not permitted, please check shared memory limits by 'ipcs -l'


           ************************************************************
           *        Program running with 4 parallel MPI-processes     *
           *              working on a common directory               *
           ************************************************************
[1631719801.429402] [comp0805:224832:0]            sys.c:618  UCX  ERROR shmget(size=2097152 flags=0xb80) for ucp_am_bufs failed: Operation not permitted, please check shared memory limits by 'ipcs -l'
[1631719801.429536] [comp0805:224831:0]            sys.c:618  UCX  ERROR shmget(size=2097152 flags=0xb80) for ucp_am_bufs failed: Operation not permitted, please check shared memory limits by 'ipcs -l'
[1631719801.430257] [comp0805:224833:0]            sys.c:618  UCX  ERROR shmget(size=2097152 flags=0xb80) for ucp_am_bufs failed: Operation not permitted, please check shared memory limits by 'ipcs -l'

Diagonalization of the overlap matrix:
Smallest eigenvalue                        ... 1.030e-02
Time for diagonalization                   ...    0.003 sec
Threshold for overlap eigenvalues          ... 1.000e-08
Number of eigenvalues below threshold      ... 0
Time for construction of square roots      ...    0.001 sec
Total time needed                          ...    0.004 sec

-------------------
DFT GRID GENERATION
-------------------

General Integration Accuracy     IntAcc      ...  4.340
Radial Grid Type                 RadialGrid  ... Gauss-Chebyshev
Angular Grid (max. acc.)         AngularGrid ... Lebedev-110
Angular grid pruning method      GridPruning ... 3 (G Style)
Weight generation scheme         WeightScheme... Becke
Basis function cutoff            BFCut       ...    1.0000e-11
Integration weight cutoff        WCut        ...    1.0000e-14
Grids for H and He will be reduced by one unit

# of grid points (after initial pruning)     ...  10210 (   0.0 sec)
# of grid points (after weights+screening)   ...  10056 (   0.0 sec)
nearest neighbour list constructed           ...    0.0 sec
Grid point re-assignment to atoms done       ...    0.0 sec
Grid point division into batches done        ...    0.0 sec
Reduced shell lists constructed in    0.0 sec

Total number of grid points                  ...    10056
Total number of batches                      ...      161
Average number of points per batch           ...       62
Average number of grid points per atom       ...     1676
Average number of shells per batch           ...    26.90 (72.72%)
Average number of basis functions per batch  ...    63.43 (72.91%)
Average number of large shells per batch     ...    22.36 (83.10%)
Average number of large basis fcns per batch ...    51.36 (80.97%)
Maximum spatial batch extension              ...  18.92, 16.04, 22.23 au
Average spatial batch extension              ...   1.02,  0.95,  1.01 au

Time for grid setup =    0.057 sec

--------------------
COSX GRID GENERATION
--------------------

General Integration Accuracy     IntAcc      ...  3.340
Radial Grid Type                 RadialGrid  ... Gauss-Chebyshev
Angular Grid (max. acc.)         AngularGrid ... Lebedev-50
Angular grid pruning method      GridPruning ... 3 (G Style)
Weight generation scheme         WeightScheme... Becke
Basis function cutoff            BFCut       ...    1.0000e-11
Integration weight cutoff        WCut        ...    1.0000e-14
Grids for H and He will be reduced by one unit

# of grid points (after initial pruning)     ...   3812 (   0.0 sec)
# of grid points (after weights+screening)   ...   3749 (   0.0 sec)
nearest neighbour list constructed           ...    0.0 sec
Grid point re-assignment to atoms done       ...    0.0 sec
Grid point division into batches done        ...    0.0 sec
Reduced shell lists constructed in    0.0 sec

Total number of grid points                  ...     3749
Total number of batches                      ...       61
Average number of points per batch           ...       61
Average number of grid points per atom       ...      625
Average number of shells per batch           ...    27.47 (74.24%)
Average number of basis functions per batch  ...    65.12 (74.85%)
Average number of large shells per batch     ...    23.65 (86.08%)
Average number of large basis fcns per batch ...    54.47 (83.65%)
Maximum spatial batch extension              ...  19.28, 16.97, 17.33 au
Average spatial batch extension              ...   1.46,  1.28,  1.28 au

Overlap Fitting                  UseSFitting ... on
Constructing numerical overlap ... done (      0.0 sec)
Inverting numerical overlap    ... done (      0.0 sec)
Obtaining analytic overlap     ... done (      0.0 sec)
Final contraction and storage  ... done (      0.0 sec)


General Integration Accuracy     IntAcc      ...  3.670
Radial Grid Type                 RadialGrid  ... Gauss-Chebyshev
Angular Grid (max. acc.)         AngularGrid ... Lebedev-50
Angular grid pruning method      GridPruning ... 3 (G Style)
Weight generation scheme         WeightScheme... Becke
Basis function cutoff            BFCut       ...    1.0000e-11
Integration weight cutoff        WCut        ...    1.0000e-14
Grids for H and He will be reduced by one unit

# of grid points (after initial pruning)     ...   4614 (   0.0 sec)
# of grid points (after weights+screening)   ...   4535 (   0.0 sec)
nearest neighbour list constructed           ...    0.0 sec
Grid point re-assignment to atoms done       ...    0.0 sec
Grid point division into batches done        ...    0.0 sec
Reduced shell lists constructed in    0.0 sec

Total number of grid points                  ...     4535
Total number of batches                      ...       75
Average number of points per batch           ...       60
Average number of grid points per atom       ...      756
Average number of shells per batch           ...    27.15 (73.38%)
Average number of basis functions per batch  ...    63.85 (73.39%)
Average number of large shells per batch     ...    23.05 (84.90%)
Average number of large basis fcns per batch ...    52.75 (82.62%)
Maximum spatial batch extension              ...  20.64, 17.71, 22.48 au
Average spatial batch extension              ...   1.35,  1.13,  1.24 au

Overlap Fitting                  UseSFitting ... on
Constructing numerical overlap ... done (      0.0 sec)
Inverting numerical overlap    ... done (      0.0 sec)
Obtaining analytic overlap     ... done (      0.0 sec)
Final contraction and storage  ... done (      0.0 sec)


General Integration Accuracy     IntAcc      ...  4.010
Radial Grid Type                 RadialGrid  ... Gauss-Chebyshev
Angular Grid (max. acc.)         AngularGrid ... Lebedev-110
Angular grid pruning method      GridPruning ... 3 (G Style)
Weight generation scheme         WeightScheme... Becke
Basis function cutoff            BFCut       ...    1.0000e-11
Integration weight cutoff        WCut        ...    1.0000e-14
Grids for H and He will be reduced by one unit

# of grid points (after initial pruning)     ...   9004 (   0.0 sec)
# of grid points (after weights+screening)   ...   8874 (   0.0 sec)
nearest neighbour list constructed           ...    0.0 sec
Grid point re-assignment to atoms done       ...    0.0 sec
Grid point division into batches done        ...    0.0 sec
Reduced shell lists constructed in    0.0 sec

Total number of grid points                  ...     8874
Total number of batches                      ...      141
Average number of points per batch           ...       62
Average number of grid points per atom       ...     1479
Average number of shells per batch           ...    27.16 (73.41%)
Average number of basis functions per batch  ...    64.03 (73.59%)
Average number of large shells per batch     ...    22.76 (83.78%)
Average number of large basis fcns per batch ...    52.32 (81.72%)
Maximum spatial batch extension              ...  19.33, 16.00, 25.43 au
Average spatial batch extension              ...   1.01,  0.98,  1.07 au

Overlap Fitting                  UseSFitting ... on
Constructing numerical overlap ... done (      0.0 sec)
Inverting numerical overlap    ... done (      0.0 sec)
Obtaining analytic overlap     ... done (      0.0 sec)
Final contraction and storage  ... done (      0.0 sec)

Time for X-Grid setup             =    0.157 sec

--------------------
CPCM SOLVATION MODEL
--------------------
CPCM parameters:
  Epsilon                                         ...      20.7000
  Refrac                                          ...       1.3590
  Rsolv                                           ...       1.3000
  Surface type                                    ...    GEPOL SES
  Epsilon function type                           ...         CPCM
Radii:
 Radius for C  used is    3.7795 Bohr (=   2.0000 Ang.)
 Radius for Br used is    4.0818 Bohr (=   2.1600 Ang.)
 Radius for H  used is    2.4566 Bohr (=   1.3000 Ang.)
 Radius for I  used is    4.3842 Bohr (=   2.3200 Ang.)
Calculating surface                               ...        done! (  0.0s)
GEPOL surface points                              ...          326
GEPOL Volume                                      ...     832.9069
GEPOL Surface-area                                ...     506.4918
Calculating surface distance matrix               ...        done! (  0.0s)
Performing Cholesky decomposition & store         ...        done! (  0.0s)
Overall time for CPCM initialization              ...                 0.0s
--------------
SCF ITERATIONS
--------------
ITER       Energy         Delta-E        Max-DP      RMS-DP      [F,P]     Damp
               ***  Starting incremental Fock matrix formation  ***
                      *** Initiating the SOSCF procedure ***
                      *** Re-Reading the Fockian *** 
                      *** Removing any level shift *** 
ITER      Energy       Delta-E        Grad      Rot      Max-DP    RMS-DP
  0  -2911.26850820 -2911.2685082036  0.000944  0.000944  0.001154  0.000066
               *** Restarting incremental Fock matrix formation ***
  1  -2911.26851358  -0.0000053779  0.000114  0.000298  0.001079  0.000041
  2  -2911.26851424  -0.0000006614  0.000026  0.000054  0.000164  0.000008
  3  -2911.26851420   0.0000000390  0.000031  0.000036  0.000063  0.000003
  4  -2911.26851425  -0.0000000443  0.000005  0.000008  0.000023  0.000001
  5  -2911.26851425  -0.0000000058  0.000004  0.000003  0.000012  0.000000
                  ***Gradient check signals convergence***
              ***Rediagonalizing the Fockian in SOSCF/NRSCF***

               *****************************************************
               *                     SUCCESS                       *
               *           SCF CONVERGED AFTER   6 CYCLES          *
               *****************************************************

Setting up the final grid:

General Integration Accuracy     IntAcc      ...  4.670
Radial Grid Type                 RadialGrid  ... Gauss-Chebyshev
Angular Grid (max. acc.)         AngularGrid ... Lebedev-302
Angular grid pruning method      GridPruning ... 3 (G Style)
Weight generation scheme         WeightScheme... Becke
Basis function cutoff            BFCut       ...    1.0000e-11
[...]
Basis function cutoff            BFCut       ...    1.0000e-11
Integration weight cutoff        WCut        ...    1.0000e-14
Grids for H and He will be reduced by one unit

# of grid points (after initial pruning)     ...  36752 (   0.0 sec)
# of grid points (after weights+screening)   ...  36006 (   0.0 sec)
nearest neighbour list constructed           ...    0.0 sec
Grid point re-assignment to atoms done       ...    0.0 sec
Grid point division into batches done        ...    0.2 sec
Reduced shell lists constructed in    0.2 sec

Total number of grid points                  ...    36006
Total number of batches                      ...      565
Average number of points per batch           ...       63
Average number of grid points per atom       ...     6001
Average number of shells per batch           ...    24.49 (66.19%)
Average number of basis functions per batch  ...    57.13 (65.67%)
Average number of large shells per batch     ...    19.98 (81.58%)
Average number of large basis fcns per batch ...    45.52 (79.67%)
Maximum spatial batch extension              ...  17.70, 17.09, 18.64 au
Average spatial batch extension              ...   0.73,  0.71,  0.73 au

Final grid set up in    0.2 sec
Final integration                            ... done (   0.0 sec)
Change in XC energy                          ...     0.000133817
Integrated number of electrons               ...    70.000010448
Previous integrated no of electrons          ...    70.001407864
Old exchange energy                            =    -29.308024939 Eh
New exchange energy                            =    -29.308042696 Eh
Exchange energy change after final integration =     -0.000017757 Eh
Total energy after final integration           =  -2911.268731775 Eh
Final COS-X integration done in                =     0.337 sec

----------------
TOTAL SCF ENERGY
----------------

Total Energy       :        -2911.26873178 Eh          -79219.64964 eV

Components:
Nuclear Repulsion  :          220.94517175 Eh            6012.22378 eV
Electronic Energy  :        -3132.21390353 Eh          -85231.87342 eV
One Electron Energy:        -4607.44131294 Eh         -125374.85206 eV
Two Electron Energy:         1475.22740942 Eh           40142.97864 eV
CPCM Dielectric    :           -0.10071541 Eh              -2.74061 eV

Virial components:
Potential Energy   :        -5635.38498240 Eh         -153346.62136 eV
Kinetic Energy     :         2724.11625063 Eh           74126.97172 eV
Virial Ratio       :            2.06870209


DFT components:
N(Alpha)           :       35.000005223870 electrons
N(Beta)            :       35.000005223870 electrons
N(Total)           :       70.000010447740 electrons
E(X)               :      -87.526655440434 Eh       
E(C)               :       -3.167784609459 Eh       
E(XC)              :      -90.694440049894 Eh       
DFET-embed. en.    :        0.000000000000 Eh       
CPCM Solvation Model Properties:
Surface-charge          :            0.96791725
Charge-correction       :           -0.00442110 Eh              -0.12030 eV
Free-energy (cav+disp)  :            0.00361589 Eh               0.09839 eV
Corrected G(solv)       :        -2911.26953698 Eh          -79219.67155 eV

---------------
SCF CONVERGENCE
---------------

  Last Energy change         ...   -1.2098e-08  Tolerance :   1.0000e-08
  Last MAX-Density change    ...    2.6645e-15  Tolerance :   1.0000e-07
  Last RMS-Density change    ...    1.0757e-16  Tolerance :   5.0000e-09
  Last Orbital Gradient      ...    2.2435e-06  Tolerance :   1.0000e-05
  Last Orbital Rotation      ...    4.1610e-06  Tolerance :   1.0000e-05

             **** THE GBW FILE WAS UPDATED (manual_reactants_348_opt.gbw) ****
             **** DENSITY FILE WAS UPDATED (manual_reactants_348_opt.scfp) ****
             **** ENERGY FILE WAS UPDATED (manual_reactants_348_opt.en.tmp) ****
             **** THE GBW FILE WAS UPDATED (manual_reactants_348_opt.gbw) ****
             **** DENSITY FILE WAS UPDATED (manual_reactants_348_opt.scfp) ****
----------------
ORBITAL ENERGIES
----------------

  NO   OCC          E(Eh)            E(eV) 
   0   2.0000    -483.174355    -13147.8426 
   1   2.0000     -62.610682     -1703.7233 
   2   2.0000     -56.399926     -1534.7200 
   3   2.0000     -56.397523     -1534.6546 
   4   2.0000     -56.397445     -1534.6525 
   5   2.0000     -10.269245      -279.4404 
   6   2.0000      -8.756099      -238.2656 
   7   2.0000      -6.799992      -185.0372 
   8   2.0000      -6.570815      -178.8010 
   9   2.0000      -6.558086      -178.4546 
  10   2.0000      -6.557918      -178.4500 
  11   2.0000      -4.807571      -130.8206 
  12   2.0000      -4.807507      -130.8189 
  13   2.0000      -4.807329      -130.8141 
  14   2.0000      -2.656290       -72.2813 
  15   2.0000      -2.652796       -72.1862 
  16   2.0000      -2.652669       -72.1828 
  17   2.0000      -2.642303       -71.9007 
  18   2.0000      -2.642289       -71.9004 
  19   2.0000      -1.834769       -49.9266 
  20   2.0000      -1.834764       -49.9265 
  21   2.0000      -1.834600       -49.9220 
  22   2.0000      -1.834525       -49.9200 
  23   2.0000      -1.834483       -49.9188 
  24   2.0000      -0.814073       -22.1520 
  25   2.0000      -0.666107       -18.1257 
  26   2.0000      -0.605076       -16.4649 
  27   2.0000      -0.438639       -11.9360 
  28   2.0000      -0.436129       -11.8677 
  29   2.0000      -0.389033       -10.5861 
  30   2.0000      -0.282428        -7.6853 
  31   2.0000      -0.281851        -7.6696 
  32   2.0000      -0.214130        -5.8268 
  33   2.0000      -0.213588        -5.8120 
  34   2.0000      -0.210777        -5.7355 
  35   0.0000       0.024935         0.6785 
  36   0.0000       0.106940         2.9100 
  37   0.0000       0.148837         4.0501 
  38   0.0000       0.149593         4.0706 
  39   0.0000       0.303798         8.2668 
  40   0.0000       0.352316         9.5870 
  41   0.0000       0.392387        10.6774 
  42   0.0000       0.404639        11.0108 
  43   0.0000       0.447798        12.1852 
  44   0.0000       0.460238        12.5237 
  45   0.0000       0.461564        12.5598 
  46   0.0000       0.488100        13.2819 
  47   0.0000       0.505539        13.7564 
  48   0.0000       0.505961        13.7679 
  49   0.0000       0.506504        13.7827 
  50   0.0000       0.507252        13.8030 
  51   0.0000       0.515179        14.0187 
  52   0.0000       0.548439        14.9238 
  53   0.0000       0.558577        15.1997 
  54   0.0000       0.605562        16.4782 
  55   0.0000       0.613674        16.6989 
  56   0.0000       0.639220        17.3941 
  57   0.0000       0.682248        18.5649 
  58   0.0000       0.689432        18.7604 
  59   0.0000       0.709702        19.3120 
  60   0.0000       0.711602        19.3637 
  61   0.0000       0.722279        19.6542 
  62   0.0000       0.802167        21.8281 
  63   0.0000       1.050871        28.5957 
  64   0.0000       1.247329        33.9416 
  65   0.0000       1.252282        34.0763 
  66   0.0000       1.523067        41.4448 
  67   0.0000       1.732031        47.1310 
  68   0.0000       1.743013        47.4298 
  69   0.0000       1.826552        49.7030 
  70   0.0000       1.973224        53.6942 
  71   0.0000       1.980327        53.8874 
  72   0.0000       2.161655        58.8216 
  73   0.0000       2.415551        65.7305 
  74   0.0000       2.423787        65.9546 
  75   0.0000       2.722853        74.0926 
  76   0.0000       2.903954        79.0206 
  77   0.0000       2.910800        79.2069 
  78   0.0000       3.469922        94.4214 
  79   0.0000       3.470515        94.4375 
  80   0.0000       3.552240        96.6614 
  81   0.0000       3.555852        96.7597 
  82   0.0000       3.772296       102.6494 
  83   0.0000      18.662366       507.8288 
  84   0.0000      18.666736       507.9477 
  85   0.0000      18.729258       509.6490 
  86   0.0000      55.872589      1520.3704 

                    ********************************
                    * MULLIKEN POPULATION ANALYSIS *
                    ********************************

-----------------------
MULLIKEN ATOMIC CHARGES
-----------------------
   0 C :   -0.122032
   1 Br:   -0.221944
   2 H :    0.110710
   3 H :    0.108051
   4 H :    0.111809
   5 I :   -0.986594
Sum of atomic charges:   -1.0000000

--------------------------------
MULLIKEN REDUCED ORBITAL CHARGES
--------------------------------
  0 C s       :     3.145071  s :     3.145071
      pz      :     1.069839  p :     2.950137
      px      :     1.048137
      py      :     0.832160
      dz2     :     0.005404  d :     0.026825
      dxz     :     0.003187
      dyz     :     0.006679
      dx2y2   :     0.007436
      dxy     :     0.004120
  1 Brs       :     7.974457  s :     7.974457
      pz      :     5.961114  p :    17.199707
      px      :     5.885270
      py      :     5.353323
      dz2     :     2.006572  d :    10.047780
      dxz     :     2.001704
      dyz     :     2.010593
      dx2y2   :     2.015206
      dxy     :     2.013705
  2 H s       :     0.865016  s :     0.865016
      pz      :     0.011560  p :     0.024274
      px      :     0.005095
      py      :     0.007619
  3 H s       :     0.867787  s :     0.867787
      pz      :     0.012950  p :     0.024162
      px      :     0.006361
      py      :     0.004852
  4 H s       :     0.863929  s :     0.863929
      pz      :     0.004817  p :     0.024262
      px      :     0.015831
      py      :     0.003614
  5 I s       :     4.000110  s :     4.000110
      pz      :     3.991723  p :    11.986239
      px      :     3.995696
      py      :     3.998820
      dz2     :     2.000048  d :    10.000245
      dxz     :     2.000103
      dyz     :     2.000047
      dx2y2   :     2.000011
      dxy     :     2.000036


                     *******************************
                     * LOEWDIN POPULATION ANALYSIS *
                     *******************************

----------------------
LOEWDIN ATOMIC CHARGES
----------------------
   0 C :   -0.108236
   1 Br:   -0.029946
   2 H :    0.039248
   3 H :    0.040687
   4 H :    0.040878
   5 I :   -0.982631

-------------------------------
LOEWDIN REDUCED ORBITAL CHARGES
-------------------------------
  0 C s       :     2.914977  s :     2.914977
      pz      :     1.106799  p :     3.128498
      px      :     1.087960
      py      :     0.933739
      dz2     :     0.013253  d :     0.064761
      dxz     :     0.007394
      dyz     :     0.016747
      dx2y2   :     0.018340
      dxy     :     0.009027
  1 Brs       :     7.822490  s :     7.822490
      pz      :     5.938784  p :    17.150623
      px      :     5.865927
      py      :     5.345912
      dz2     :     2.008025  d :    10.056833
      dxz     :     2.001979
      dyz     :     2.012052
      dx2y2   :     2.018301
      dxy     :     2.016475
  2 H s       :     0.889430  s :     0.889430
      pz      :     0.032895  p :     0.071321
      px      :     0.014253
      py      :     0.024173
  3 H s       :     0.888690  s :     0.888690
      pz      :     0.037649  p :     0.070623
      px      :     0.017816
      py      :     0.015158
  4 H s       :     0.888145  s :     0.888145
      pz      :     0.012932  p :     0.070978
      px      :     0.046990
      py      :     0.011056
  5 I s       :     3.999477  s :     3.999477
      pz      :     3.988746  p :    11.982951
      px      :     3.995164
      py      :     3.999041
      dz2     :     2.000033  d :    10.000203
      dxz     :     2.000076
      dyz     :     2.000048
      dx2y2   :     2.000007
      dxy     :     2.000038


                      *****************************
                      * MAYER POPULATION ANALYSIS *
                      *****************************

  NA   - Mulliken gross atomic population
  ZA   - Total nuclear charge
  QA   - Mulliken gross atomic charge
  VA   - Mayer's total valence
  BVA  - Mayer's bonded valence
  FA   - Mayer's free valence

  ATOM       NA         ZA         QA         VA         BVA        FA
  0 C      6.1220     6.0000    -0.1220     3.8770     3.8770     0.0000
  1 Br    35.2219    35.0000    -0.2219     1.0061     1.0061    -0.0000
  2 H      0.8893     1.0000     0.1107     0.9860     0.9860    -0.0000
  3 H      0.8919     1.0000     0.1081     0.9725     0.9725     0.0000
  4 H      0.8882     1.0000     0.1118     0.9831     0.9831     0.0000
  5 I     25.9866    25.0000    -0.9866     0.0333     0.0333    -0.0000

  Mayer bond orders larger than 0.100000
B(  0-C ,  1-Br) :   0.9817 B(  0-C ,  2-H ) :   0.9667 B(  0-C ,  3-H ) :   0.9680 
B(  0-C ,  4-H ) :   0.9677 


------------------
HIRSHFELD ANALYSIS
------------------

Total integrated alpha density =     35.000703932
Total integrated beta density  =     35.000703932

  ATOM     CHARGE      SPIN    
   0 C   -0.025074    0.000000
   1 Br  -0.155328    0.000000
   2 H    0.042411    0.000000
   3 H    0.050701    0.000000
   4 H    0.044877    0.000000
   5 I   -0.958995    0.000000

  TOTAL  -1.001408    0.000000

-------
TIMINGS
-------

Total SCF time: 0 days 0 hours 0 min 3 sec 

Total time                  ....       3.455 sec
Sum of individual times     ....       3.213 sec  ( 93.0%)

Fock matrix formation       ....       2.742 sec  ( 79.4%)
  Split-RI-J                ....       0.567 sec  ( 20.7% of F)
  Chain of spheres X        ....       1.111 sec  ( 40.5% of F)
  COS-X 1 center corr.      ....       0.000 sec  (  0.0% of F)
  XC integration            ....       0.117 sec  (  4.3% of F)
    Basis function eval.    ....       0.043 sec  ( 36.8% of XC)
    Density eval.           ....       0.017 sec  ( 14.7% of XC)
    XC-Functional eval.     ....       0.016 sec  ( 14.0% of XC)
    XC-Potential eval.      ....       0.020 sec  ( 17.1% of XC)
Diagonalization             ....       0.001 sec  (  0.0%)
Density matrix formation    ....       0.001 sec  (  0.0%)
Population analysis         ....       0.015 sec  (  0.4%)
Initial guess               ....       0.004 sec  (  0.1%)
Orbital Transformation      ....       0.000 sec  (  0.0%)
Orbital Orthonormalization  ....       0.001 sec  (  0.0%)
DIIS solution               ....       0.000 sec  (  0.0%)
SOSCF solution              ....       0.002 sec  (  0.1%)
Grid generation             ....       0.447 sec  ( 12.9%)


-------------------------------------------------------------------------------
                          DFT DISPERSION CORRECTION                            
                                                                               
                              DFTD3 V3.1  Rev 1                                
                          USING Becke-Johnson damping                          
-------------------------------------------------------------------------------
The PBE0 functional is recognized
Active option DFTDOPT                   ...         4   

molecular C6(AA) [au] = 1701.967536 


            DFT-D V3
 parameters
 s6 scaling factor         :     1.0000 
 a1 scaling factor         :     0.4145 
 s8 scaling factor         :     1.2177 
 a2 scaling factor         :     4.8593 
 ad hoc parameters k1-k3   :    16.0000     1.3333    -4.0000 

 Edisp/kcal,au: -2.269937542103  -0.003617375345 
 E6   /kcal   :  -1.247172304 
 E8   /kcal   :  -1.022765238 
 % E8         :  45.056977090 

-------------------------   ----------------
Dispersion correction           -0.003617375
-------------------------   ----------------


-------------------------   --------------------
FINAL SINGLE POINT ENERGY     -2911.272349150472
-------------------------   --------------------

                                *** OPTIMIZATION RUN DONE ***

                            ***************************************
                            *     ORCA property calculations      *
                            ***************************************

                                    ---------------------
                                    Active property flags
                                    ---------------------
   (+) Dipole Moment


------------------------------------------------------------------------------
                       ORCA ELECTRIC PROPERTIES CALCULATION
------------------------------------------------------------------------------

Dipole Moment Calculation                       ... on
Quadrupole Moment Calculation                   ... off
Polarizability Calculation                      ... off
GBWName                                         ... manual_reactants_348_opt.gbw
Electron density file                           ... manual_reactants_348_opt.scfp
The origin for moment calculation is the CENTER OF MASS  = (-0.108325,  0.099126 -0.315688)

-------------
DIPOLE MOMENT
-------------
                                X             Y             Z
Electronic contribution:     66.95256      28.06860      87.85555
Nuclear contribution   :    -68.69293     -28.29428     -90.59350
                        -----------------------------------------
Total Dipole Moment    :     -1.74037      -0.22567      -2.73795
                        -----------------------------------------
Magnitude (a.u.)       :      3.25211
Magnitude (Debye)      :      8.26620



--------------------
Rotational spectrum 
--------------------
 
Rotational constants in cm-1:     0.362036     0.016017     0.015384 
Rotational constants in MHz : 10853.562315   480.179651   461.202284 

 Dipole components along the rotational axes: 
x,y,z [a.u.] :    -3.128840     0.886876    -0.001875 
x,y,z [Debye]:    -7.952879     2.254258    -0.004767 

 
[1631719887.243360] [comp0805:225936:0]            sys.c:618  UCX  ERROR shmget(size=2097152 flags=0xfb0) for mm_recv_desc failed: Operation not permitted, please check shared memory limits by 'ipcs -l'
[1631719887.243784] [comp0805:225942:0]            sys.c:618  UCX  ERROR shmget(size=2097152 flags=0xfb0) for mm_recv_desc failed: Operation not permitted, please check shared memory limits by 'ipcs -l'
[1631719887.261494] [comp0805:225944:0]            sys.c:618  UCX  ERROR shmget(size=2097152 flags=0xfb0) for mm_recv_desc failed: Operation not permitted, please check shared memory limits by 'ipcs -l'
[1631719887.263274] [comp0805:225941:0]            sys.c:618  UCX  ERROR shmget(size=2097152 flags=0xfb0) for mm_recv_desc failed: Operation not permitted, please check shared memory limits by 'ipcs -l'
[1631719887.271505] [comp0805:225936:0]            sys.c:618  UCX  ERROR shmget(size=2097152 flags=0xb80) for ucp_am_bufs failed: Operation not permitted, please check shared memory limits by 'ipcs -l'
[1631719887.272232] [comp0805:225942:0]            sys.c:618  UCX  ERROR shmget(size=2097152 flags=0xb80) for ucp_am_bufs failed: Operation not permitted, please check shared memory limits by 'ipcs -l'
[1631719887.272999] [comp0805:225944:0]            sys.c:618  UCX  ERROR shmget(size=2097152 flags=0xb80) for ucp_am_bufs failed: Operation not permitted, please check shared memory limits by 'ipcs -l'
[1631719887.273024] [comp0805:225941:0]            sys.c:618  UCX  ERROR shmget(size=2097152 flags=0xb80) for ucp_am_bufs failed: Operation not permitted, please check shared memory limits by 'ipcs -l'

Timings for individual modules:

Sum of individual times         ...      109.270 sec (=   1.821 min)
GTO integral calculation        ...       15.281 sec (=   0.255 min)  14.0 %
SCF iterations                  ...       69.617 sec (=   1.160 min)  63.7 %
SCF Gradient evaluation         ...       21.361 sec (=   0.356 min)  19.5 %
Geometry relaxation             ...        3.011 sec (=   0.050 min)   2.8 %
                             ****ORCA TERMINATED NORMALLY****
TOTAL RUN TIME: 0 days 0 hours 1 minutes 52 seconds 557 msec
