
                                 *****************
                                 * O   R   C   A *
                                 *****************

           --- An Ab Initio, DFT and Semiempirical electronic structure package ---

                  #######################################################
                  #                        -***-                        #
                  #          Department of theory and spectroscopy      #
                  #               Directorship: Frank Neese             #
                  #        Max Planck Institute fuer Kohlenforschung    #
                  #                Kaiser Wilhelm Platz 1               #
                  #                 D-45470 Muelheim/Ruhr               #
                  #                      Germany                        #
                  #                                                     #
                  #                  All rights reserved                #
                  #                        -***-                        #
                  #######################################################


                         Program Version 4.2.1 -  RELEASE  -


 With contributions from (in alphabetic order):
   Daniel Aravena         : Magnetic Suceptibility
   Michael Atanasov       : Ab Initio Ligand Field Theory (pilot matlab implementation)
   Alexander A. Auer      : GIAO ZORA, VPT2
   Ute Becker             : Parallelization
   Giovanni Bistoni       : ED, misc. LED, open-shell LED, HFLD
   Martin Brehm           : Molecular dynamics
   Dmytro Bykov           : SCF Hessian
   Vijay G. Chilkuri      : MRCI spin determinant printing, contributions to CSF-ICE
   Dipayan Datta          : RHF DLPNO-CCSD density
   Achintya Kumar Dutta   : EOM-CC, STEOM-CC
   Dmitry Ganyushin       : Spin-Orbit,Spin-Spin,Magnetic field MRCI
   Miquel Garcia          : C-PCM Hessian, Gaussian charge scheme
   Yang Guo               : DLPNO-NEVPT2, CIM, IAO-localization
   Andreas Hansen         : Spin unrestricted coupled pair/coupled cluster methods
   Benjamin Helmich-Paris : CASSCF linear response (MC-RPA)
   Lee Huntington         : MR-EOM, pCC
   Robert Izsak           : Overlap fitted RIJCOSX, COSX-SCS-MP3, EOM
   Christian Kollmar      : KDIIS, OOCD, Brueckner-CCSD(T), CCSD density
   Simone Kossmann        : Meta GGA functionals, TD-DFT gradient, OOMP2, MP2 Hessian
   Martin Krupicka        : AUTO-CI
   Lucas Lang             : DCDCAS
   Dagmar Lenk            : GEPOL surface, SMD
   Dimitrios Liakos       : Extrapolation schemes; Compound Job, initial MDCI parallelization
   Dimitrios Manganas     : Further ROCIS development; embedding schemes
   Dimitrios Pantazis     : SARC Basis sets
   Taras Petrenko         : DFT Hessian,TD-DFT gradient, ASA, ECA, R-Raman, ABS, FL, XAS/XES, NRVS
   Peter Pinski           : DLPNO-MP2, DLPNO-MP2 Gradient
   Christoph Reimann      : Effective Core Potentials
   Marius Retegan         : Local ZFS, SOC
   Christoph Riplinger    : Optimizer, TS searches, QM/MM, DLPNO-CCSD(T), (RO)-DLPNO pert. Triples
   Tobias Risthaus        : Range-separated hybrids, TD-DFT gradient, RPA, STAB
   Michael Roemelt        : Original ROCIS implementation
   Masaaki Saitow         : Open-shell DLPNO-CCSD energy and density
   Barbara Sandhoefer     : DKH picture change effects
   Avijit Sen             : IP-ROCIS
   Kantharuban Sivalingam : CASSCF convergence, NEVPT2, FIC-MRCI
   Bernardo de Souza      : ESD, SOC TD-DFT
   Georgi Stoychev        : AutoAux, RI-MP2 NMR
   Willem Van den Heuvel  : Paramagnetic NMR
   Boris Wezisla          : Elementary symmetry handling
   Frank Wennmohs         : Technical directorship


 We gratefully acknowledge several colleagues who have allowed us to
 interface, adapt or use parts of their codes:
   Stefan Grimme, W. Hujo, H. Kruse,             : VdW corrections, initial TS optimization,
                  C. Bannwarth                     DFT functionals, gCP, sTDA/sTD-DF
   Ed Valeev, F. Pavosevic, A. Kumar             : LibInt (2-el integral package), F12 methods
   Garnet Chan, S. Sharma, J. Yang, R. Olivares  : DMRG
   Ulf Ekstrom                                   : XCFun DFT Library
   Mihaly Kallay                                 : mrcc  (arbitrary order and MRCC methods)
   Andreas Klamt, Michael Diedenhofen            : otool_cosmo (COSMO solvation model)
   Jiri Pittner, Ondrej Demel                    : Mk-CCSD
   Frank Weinhold                                : gennbo (NPA and NBO analysis)
   Christopher J. Cramer and Donald G. Truhlar   : smd solvation model
   Lars Goerigk                                  : TD-DFT with DH, B97 family of functionals
   V. Asgeirsson, H. Jonsson                     : NEB implementation
   FAccTs GmbH                                   : IRC, NEB, NEB-TS, Multilevel, MM, QM/MM, CI optimization
   S Lehtola, MJT Oliveira, MAL Marques          : LibXC Library


 Your calculation uses the libint2 library for the computation of 2-el integrals
 For citations please refer to: http://libint.valeyev.net

 Your ORCA version has been built with support for libXC version: 4.2.3
 For citations please refer to: https://tddft.org/programs/libxc/

 This ORCA versions uses:
   CBLAS   interface :  Fast vector & matrix operations
   LAPACKE interface :  Fast linear algebra routines
   SCALAPACK package :  Parallel linear algebra routines


Your calculation utilizes the atom-pairwise dispersion correction
with the Becke-Johnson damping scheme (D3BJ)
Cite in your paper:
S.Grimme, S.Ehrlich, L.Goerigk, J Comput Chem, (2011), 32, 1456–1465 
S.Grimme, J.Antony, S.Ehrlich and H.Krieg, J.Chem.Phys., 132, (2010), 154104 
   

----- Orbital basis set information -----
Your calculation utilizes the basis: def2-SVP
   F. Weigend and R. Ahlrichs, Phys. Chem. Chem. Phys. 7, 3297 (2005).

----- AuxJ basis set information -----
Your calculation utilizes the auxiliary basis: def2/J
   F. Weigend, Phys. Chem. Chem. Phys. 8, 1057 (2006).

================================================================================
                                        WARNINGS
                       Please study these warnings very carefully!
================================================================================


WARNING: Geometry Optimization
  ===> : Switching off AutoStart
         For restart on a previous wavefunction, please use MOREAD

INFO   : the flag for use of LIBINT has been found!

================================================================================
                                       INPUT FILE
================================================================================
NAME = manual_reactants_333.inp
|  1> ! Opt PBE0 RIJCOSX D3BJ def2-SVP def2/J CPCM(Acetone)
|  2> %cpcm
|  3> surfacetype vdw_gaussian
|  4> end
|  5> %geom MaxIter 100 end
|  6> %output 
|  7> xyzfile=True 
|  8> end 
|  9> %scf 
| 10> maxiter 250 
| 11> end
| 12> %output
| 13> Print[P_Hirshfeld] = 1
| 14> end
| 15> % maxcore
| 16> 4000
| 17> %pal nprocs 4
| 18> end
| 19> *xyz -1 1
| 20> C    -0.20654   1.46311  -2.33493
| 21> C    -0.61798   0.11360  -1.77392
| 22> C    -2.12861  -0.01058  -1.70772
| 23> C     0.00867  -1.04002  -2.53833
| 24> Br    0.06346   0.01308   0.11153
| 25> H    -0.57221   1.54850  -3.37276
| 26> H    -0.64614   2.28442  -1.75086
| 27> H     0.88682   1.58062  -2.34296
| 28> H    -2.54670   0.09243  -2.72387
| 29> H    -2.56670   0.77747  -1.07938
| 30> H    -2.43622  -0.98729  -1.30496
| 31> H    -0.25482  -2.00684  -2.08474
| 32> H     1.10507  -0.95549  -2.57079
| 33> H    -0.36811  -1.03757  -3.57541
| 34> Br    1.06485  -0.24457   3.17059
| 35> *
| 36> 
| 37>                          ****END OF INPUT****
================================================================================

                       *****************************
                       * Geometry Optimization Run *
                       *****************************

Geometry optimization settings:
Update method            Update   .... BFGS
Choice of coordinates    CoordSys .... Z-matrix Internals
Initial Hessian          InHess   .... Almoef's Model

Convergence Tolerances:
Energy Change            TolE     ....  5.0000e-06 Eh
Max. Gradient            TolMAXG  ....  3.0000e-04 Eh/bohr
RMS Gradient             TolRMSG  ....  1.0000e-04 Eh/bohr
Max. Displacement        TolMAXD  ....  4.0000e-03 bohr
RMS Displacement         TolRMSD  ....  2.0000e-03 bohr
Strict Convergence                ....  False
------------------------------------------------------------------------------
                        ORCA OPTIMIZATION COORDINATE SETUP
------------------------------------------------------------------------------

The optimization will be done in new redundant internal coordinates
Making redundant internal coordinates   ...  (new redundants) done
Evaluating the initial hessian          ...  (Almloef) done
Evaluating the coordinates              ...  done
Calculating the B-matrix                .... done
Calculating the G-matrix                .... done
Diagonalizing the G-matrix              .... done
The first mode is                       ....   28
The number of degrees of freedom        ....   39

    -----------------------------------------------------------------
                    Redundant Internal Coordinates


    -----------------------------------------------------------------
         Definition                    Initial Value    Approx d2E/dq
    -----------------------------------------------------------------
      1. B(C   1,C   0)                  1.5183         0.390002   
      2. B(C   2,C   1)                  1.5172         0.391603   
      3. B(C   3,C   1)                  1.5192         0.388749   
      4. B(Br  4,C   1)                  2.0073         0.217429   
      5. B(H   5,C   0)                  1.1037         0.342457   
      6. B(H   6,C   0)                  1.0995         0.347729   
      7. B(H   7,C   0)                  1.0997         0.347512   
      8. B(H   8,C   2)                  1.1036         0.342529   
      9. B(H   9,C   2)                  1.0990         0.348415   
     10. B(H  10,C   2)                  1.1004         0.346647   
     11. B(H  11,C   3)                  1.1000         0.347162   
     12. B(H  12,C   3)                  1.1001         0.346942   
     13. B(H  13,C   3)                  1.1034         0.342796   
     14. B(Br 14,Br  4)                  3.2291         0.008214   
     15. A(H   5,C   0,H   7)          108.3174         0.286957   
     16. A(H   5,C   0,H   6)          108.0144         0.286985   
     17. A(C   1,C   0,H   5)          109.0530         0.323936   
     18. A(C   1,C   0,H   7)          111.5374         0.324716   
     19. A(H   6,C   0,H   7)          108.7580         0.287642   
     20. A(C   1,C   0,H   6)          111.0579         0.324749   
     21. A(C   2,C   1,C   3)          111.7477         0.368804   
     22. A(C   0,C   1,C   2)          111.0201         0.369008   
     23. A(C   3,C   1,Br  4)          107.1316         0.354725   
     24. A(C   2,C   1,Br  4)          107.0334         0.355166   
     25. A(C   0,C   1,Br  4)          107.4325         0.354919   
     26. A(C   0,C   1,C   3)          112.1639         0.368545   
     27. A(H   8,C   2,H   9)          107.9681         0.287082   
     28. A(C   1,C   2,H   9)          111.2950         0.325073   
     29. A(C   1,C   2,H   8)          109.2316         0.324165   
     30. A(H   9,C   2,H  10)          108.4079         0.287619   
     31. A(H   8,C   2,H  10)          108.2980         0.286855   
     32. A(C   1,C   2,H  10)          111.5289         0.324802   
     33. A(H  12,C   3,H  13)          108.2045         0.286927   
     34. A(H  11,C   3,H  13)          107.9229         0.286956   
     35. A(C   1,C   3,H  13)          109.2925         0.323817   
     36. A(H  11,C   3,H  12)          108.5683         0.287495   
     37. A(C   1,C   3,H  12)          111.5675         0.324457   
     38. A(C   1,C   3,H  11)          111.1712         0.324491   
     39. L(C   1,Br  4,Br 14,C   2, 2) 177.1685         0.217931   
     40. L(C   1,Br  4,Br 14,C   2, 1) 178.0645         0.217931   
     41. D(C   3,C   1,C   0,H   7)    -56.8436         0.012092   
     42. D(Br  4,C   1,C   0,H   6)    -60.8667         0.012092   
     43. D(C   2,C   1,C   0,H   6)     55.8500         0.012092   
     44. D(Br  4,C   1,C   0,H   5)   -179.7853         0.012092   
     45. D(C   2,C   1,C   0,H   5)    -63.0686         0.012092   
     46. D(C   3,C   1,C   0,H   6)   -178.3373         0.012092   
     47. D(Br  4,C   1,C   0,H   7)     60.6269         0.012092   
     48. D(C   3,C   1,C   0,H   5)     62.7441         0.012092   
     49. D(C   2,C   1,C   0,H   7)    177.3437         0.012092   
     50. D(H   9,C   2,C   1,C   3)    174.9867         0.012187   
     51. D(H   8,C   2,C   1,Br  4)    177.1123         0.012187   
     52. D(H   8,C   2,C   1,C   3)    -65.8933         0.012187   
     53. D(H   8,C   2,C   1,C   0)     60.1509         0.012187   
     54. D(H   9,C   2,C   1,Br  4)     57.9923         0.012187   
     55. D(H  10,C   2,C   1,Br  4)    -63.2129         0.012187   
     56. D(H  10,C   2,C   1,C   3)     53.7814         0.012187   
     57. D(H  10,C   2,C   1,C   0)    179.8257         0.012187   
     58. D(H   9,C   2,C   1,C   0)    -58.9690         0.012187   
     59. D(H  13,C   3,C   1,C   2)     61.2831         0.012018   
     60. D(H  13,C   3,C   1,C   0)    -64.1318         0.012018   
     61. D(H  12,C   3,C   1,Br  4)    -62.1595         0.012018   
     62. D(H  12,C   3,C   1,C   2)   -179.0946         0.012018   
     63. D(H  12,C   3,C   1,C   0)     55.4904         0.012018   
     64. D(H  11,C   3,C   1,Br  4)     59.1915         0.012018   
     65. D(H  11,C   3,C   1,C   2)    -57.7436         0.012018   
     66. D(H  13,C   3,C   1,Br  4)    178.2182         0.012018   
     67. D(H  11,C   3,C   1,C   0)    176.8414         0.012018   
    -----------------------------------------------------------------

Number of atoms                         .... 15
Number of degrees of freedom            .... 67

         *************************************************************
         *                GEOMETRY OPTIMIZATION CYCLE   1            *
         *************************************************************
---------------------------------
CARTESIAN COORDINATES (ANGSTROEM)
---------------------------------
  C     -0.206540    1.463110   -2.334930
  C     -0.617980    0.113600   -1.773920
  C     -2.128610   -0.010580   -1.707720
  C      0.008670   -1.040020   -2.538330
  Br     0.063460    0.013080    0.111530
  H     -0.572210    1.548500   -3.372760
  H     -0.646140    2.284420   -1.750860
  H      0.886820    1.580620   -2.342960
  H     -2.546700    0.092430   -2.723870
  H     -2.566700    0.777470   -1.079380
  H     -2.436220   -0.987290   -1.304960
  H     -0.254820   -2.006840   -2.084740
  H      1.105070   -0.955490   -2.570790
  H     -0.368110   -1.037570   -3.575410
  Br     1.064850   -0.244570    3.170590

----------------------------
CARTESIAN COORDINATES (A.U.)
----------------------------
  NO LB      ZA    FRAG     MASS         X           Y           Z
   0 C     6.0000    0    12.011   -0.390304    2.764877   -4.412378
   1 C     6.0000    0    12.011   -1.167813    0.214673   -3.352223
   2 C     6.0000    0    12.011   -4.022490   -0.019993   -3.227123
   3 C     6.0000    0    12.011    0.016384   -1.965353   -4.796749
   4 Br   35.0000    0    79.900    0.119922    0.024718    0.210761
   5 H     1.0000    0     1.008   -1.081320    2.926241   -6.373593
   6 H     1.0000    0     1.008   -1.221028    4.316928   -3.308646
   7 H     1.0000    0     1.008    1.675847    2.986939   -4.427553
   8 H     1.0000    0     1.008   -4.812566    0.174667   -5.147368
   9 H     1.0000    0     1.008   -4.850360    1.469205   -2.039733
  10 H     1.0000    0     1.008   -4.603789   -1.865708   -2.466017
  11 H     1.0000    0     1.008   -0.481540   -3.792378   -3.939588
  12 H     1.0000    0     1.008    2.088280   -1.805614   -4.858089
  13 H     1.0000    0     1.008   -0.695627   -1.960723   -6.756546
  14 Br   35.0000    0    79.900    2.012275   -0.462170    5.991547

--------------------------------
INTERNAL COORDINATES (ANGSTROEM)
--------------------------------
 C      0   0   0     0.000000000000     0.00000000     0.00000000
 C      1   0   0     1.518285985511     0.00000000     0.00000000
 C      2   1   0     1.517170428561   111.02010485     0.00000000
 C      2   1   3     1.519161602661   112.16387037   125.81271165
 Br     2   1   3     2.007333167788   107.43249038   243.28328678
 H      1   2   3     1.103674367692   109.05295097   296.93139704
 H      1   2   3     1.099516275914   111.05793497    55.84999608
 H      1   2   3     1.099685941803   111.53738850   177.34365796
 H      3   2   1     1.103617293585   109.23160410    60.15094019
 H      3   2   1     1.098979893447   111.29501067   301.03096024
 H      3   2   1     1.100364464075   111.52890351   179.82567998
 H      4   2   1     1.099959899542   111.17122121   176.84144912
 H      4   2   1     1.100132688588   111.56745875    55.49042803
 H      4   2   1     1.103405681198   109.29252174   295.86816581
 Br     5   2   1     3.229088654435   177.56225629   157.97129475

---------------------------
INTERNAL COORDINATES (A.U.)
---------------------------
 C      0   0   0     0.000000000000     0.00000000     0.00000000
 C      1   0   0     2.869144705587     0.00000000     0.00000000
 C      2   1   0     2.867036608464   111.02010485     0.00000000
 C      2   1   3     2.870799382198   112.16387037   125.81271165
 Br     2   1   3     3.793309946655   107.43249038   243.28328678
 H      1   2   3     2.085642295966   109.05295097   296.93139704
 H      1   2   3     2.077784641267   111.05793497    55.84999608
 H      1   2   3     2.078105263332   111.53738850   177.34365796
 H      3   2   1     2.085534441535   109.23160410    60.15094019
 H      3   2   1     2.076771025300   111.29501067   301.03096024
 H      3   2   1     2.079387484602   111.52890351   179.82567998
 H      4   2   1     2.078622968430   111.17122121   176.84144912
 H      4   2   1     2.078949492406   111.56745875    55.49042803
 H      4   2   1     2.085134552077   109.29252174   295.86816581
 Br     5   2   1     6.102093219034   177.56225629   157.97129475

---------------------
BASIS SET INFORMATION
---------------------
There are 3 groups of distinct atoms

 Group   1 Type C   : 7s4p1d contracted to 3s2p1d pattern {511/31/1}
 Group   2 Type Br  : 14s10p6d contracted to 5s4p3d pattern {63311/5311/411}
 Group   3 Type H   : 4s1p contracted to 2s1p pattern {31/1}

Atom   0C    basis set group =>   1
Atom   1C    basis set group =>   1
Atom   2C    basis set group =>   1
Atom   3C    basis set group =>   1
Atom   4Br   basis set group =>   2
Atom   5H    basis set group =>   3
Atom   6H    basis set group =>   3
Atom   7H    basis set group =>   3
Atom   8H    basis set group =>   3
Atom   9H    basis set group =>   3
Atom  10H    basis set group =>   3
Atom  11H    basis set group =>   3
Atom  12H    basis set group =>   3
Atom  13H    basis set group =>   3
Atom  14Br   basis set group =>   2
---------------------------------
AUXILIARY/J BASIS SET INFORMATION
---------------------------------
There are 3 groups of distinct atoms

 Group   1 Type C   : 12s5p4d2f1g contracted to 6s4p3d1f1g pattern {711111/2111/211/2/1}
 Group   2 Type Br  : 19s5p5d3f1g contracted to 8s4p3d2f1g pattern {121111111/2111/311/21/1}
 Group   3 Type H   : 5s2p1d contracted to 3s1p1d pattern {311/2/1}

Atom   0C    basis set group =>   1
Atom   1C    basis set group =>   1
Atom   2C    basis set group =>   1
Atom   3C    basis set group =>   1
Atom   4Br   basis set group =>   2
Atom   5H    basis set group =>   3
Atom   6H    basis set group =>   3
Atom   7H    basis set group =>   3
Atom   8H    basis set group =>   3
Atom   9H    basis set group =>   3
Atom  10H    basis set group =>   3
Atom  11H    basis set group =>   3
Atom  12H    basis set group =>   3
Atom  13H    basis set group =>   3
Atom  14Br   basis set group =>   2
[1631282519.098136] [comp0811:50615:0]            sys.c:618  UCX  ERROR shmget(size=2097152 flags=0xfb0) for mm_recv_desc failed: Operation not permitted, please check shared memory limits by 'ipcs -l'
[1631282519.104128] [comp0811:50619:0]            sys.c:618  UCX  ERROR shmget(size=2097152 flags=0xfb0) for mm_recv_desc failed: Operation not permitted, please check shared memory limits by 'ipcs -l'
[1631282519.117661] [comp0811:50616:0]            sys.c:618  UCX  ERROR shmget(size=2097152 flags=0xfb0) for mm_recv_desc failed: Operation not permitted, please check shared memory limits by 'ipcs -l'
[1631282519.120278] [comp0811:50622:0]            sys.c:618  UCX  ERROR shmget(size=2097152 flags=0xfb0) for mm_recv_desc failed: Operation not permitted, please check shared memory limits by 'ipcs -l'
[1631282519.147447] [comp0811:50615:0]            sys.c:618  UCX  ERROR shmget(size=2097152 flags=0xb80) for ucp_am_bufs failed: Operation not permitted, please check shared memory limits by 'ipcs -l'
[1631282519.148242] [comp0811:50616:0]            sys.c:618  UCX  ERROR shmget(size=2097152 flags=0xb80) for ucp_am_bufs failed: Operation not permitted, please check shared memory limits by 'ipcs -l'
[1631282519.154212] [comp0811:50619:0]            sys.c:618  UCX  ERROR shmget(size=2097152 flags=0xb80) for ucp_am_bufs failed: Operation not permitted, please check shared memory limits by 'ipcs -l'


           ************************************************************
           *        Program running with 4 parallel MPI-processes     *
           *              working on a common directory               *
           ************************************************************
------------------------------------------------------------------------------
                           ORCA GTO INTEGRAL CALCULATION
                           -- RI-GTO INTEGRALS CHOSEN --
------------------------------------------------------------------------------

                         BASIS SET STATISTICS AND STARTUP INFO

Gaussian basis set:
 # of primitive gaussian shells          ...  153
 # of primitive gaussian functions       ...  307
 # of contracted shells                  ...   75
 # of contracted basis functions         ...  165
 Highest angular momentum                ...    2
 Maximum contraction depth               ...    6
Auxiliary gaussian basis set:
 # of primitive gaussian shells          ...  234
 # of primitive gaussian functions       ...  602
 # of contracted shells                  ...  141
 # of contracted aux-basis functions     ...  411
 Highest angular momentum                ...    4
 Maximum contraction depth               ...   12
Ratio of auxiliary to basis functions    ...  2.49
Integral package used                  ... LIBINT
 One Electron integrals                  ... done
 Ordering auxiliary basis shells         ... done
 Integral threshhold             Thresh  ...  2.500e-11
 Primitive cut-off               TCut    ...  2.500e-12
 Pre-screening matrix                    ... done
 Shell pair data                         ... 
 Ordering of the shell pairs             ... done (   0.000 sec) 2488 of 2850 pairs
 Determination of significant pairs      ... done (   0.000 sec)
 Creation of shell pair data             ... done (   0.000 sec)
 Storage of shell pair data              ... done (   0.001 sec)
 Shell pair data done in (   0.002 sec)
 Computing two index integrals           ... done
 Cholesky decomposition of the V-matrix  ... done


Timings:
 Total evaluation time                   ...   0.221 sec (  0.004 min)
 One electron matrix time                ...   0.027 sec (  0.000 min) = 12.1%
 Schwartz matrix evaluation time         ...   0.146 sec (  0.002 min) = 66.1%
 Two index repulsion integral time       ...   0.004 sec (  0.000 min) =  1.7%
 Cholesky decomposition of V             ...   0.003 sec (  0.000 min) =  1.2%
 Three index repulsion integral time     ...   0.000 sec (  0.000 min) =  0.0%

[1631282520.298119] [comp0811:50677:0]            sys.c:618  UCX  ERROR shmget(size=2097152 flags=0xfb0) for mm_recv_desc failed: Operation not permitted, please check shared memory limits by 'ipcs -l'
[1631282520.310578] [comp0811:50680:0]            sys.c:618  UCX  ERROR shmget(size=2097152 flags=0xfb0) for mm_recv_desc failed: Operation not permitted, please check shared memory limits by 'ipcs -l'
[1631282520.335489] [comp0811:50679:0]            sys.c:618  UCX  ERROR shmget(size=2097152 flags=0xfb0) for mm_recv_desc failed: Operation not permitted, please check shared memory limits by 'ipcs -l'
[1631282520.336772] [comp0811:50682:0]            sys.c:618  UCX  ERROR shmget(size=2097152 flags=0xfb0) for mm_recv_desc failed: Operation not permitted, please check shared memory limits by 'ipcs -l'
[1631282520.372548] [comp0811:50682:0]            sys.c:618  UCX  ERROR shmget(size=2097152 flags=0xb80) for ucp_am_bufs failed: Operation not permitted, please check shared memory limits by 'ipcs -l'
[1631282520.373232] [comp0811:50680:0]            sys.c:618  UCX  ERROR shmget(size=2097152 flags=0xb80) for ucp_am_bufs failed: Operation not permitted, please check shared memory limits by 'ipcs -l'
[1631282520.373817] [comp0811:50677:0]            sys.c:618  UCX  ERROR shmget(size=2097152 flags=0xb80) for ucp_am_bufs failed: Operation not permitted, please check shared memory limits by 'ipcs -l'


           ************************************************************
           *        Program running with 4 parallel MPI-processes     *
           *              working on a common directory               *
           ************************************************************
[1631282520.377148] [comp0811:50679:0]            sys.c:618  UCX  ERROR shmget(size=2097152 flags=0xb80) for ucp_am_bufs failed: Operation not permitted, please check shared memory limits by 'ipcs -l'
-------------------------------------------------------------------------------
                                 ORCA SCF
-------------------------------------------------------------------------------

------------
SCF SETTINGS
------------
Hamiltonian:
 Density Functional     Method          .... DFT(GTOs)
 Exchange Functional    Exchange        .... PBE
   PBE kappa parameter   XKappa         ....  0.804000
   PBE mue parameter    XMuePBE         ....  0.219520
 Correlation Functional Correlation     .... PBE
   PBE beta parameter  CBetaPBE         ....  0.066725
 LDA part of GGA corr.  LDAOpt          .... PW91-LDA
 Gradients option       PostSCFGGA      .... off
 Hybrid DFT is turned on
   Fraction HF Exchange ScalHFX         ....  0.250000
   Scaling of DF-GGA-X  ScalDFX         ....  0.750000
   Scaling of DF-GGA-C  ScalDFC         ....  1.000000
   Scaling of DF-LDA-C  ScalLDAC        ....  1.000000
   Perturbative correction              ....  0.000000
   Density functional embedding theory  .... OFF
   NL short-range parameter             ....  6.900000
 RI-approximation to the Coulomb term is turned on
   Number of auxiliary basis functions  .... 411
   RIJ-COSX (HFX calculated with COS-X)).... on


General Settings:
 Integral files         IntName         .... manual_reactants_333
 Hartree-Fock type      HFTyp           .... RHF
 Total Charge           Charge          ....   -1
 Multiplicity           Mult            ....    1
 Number of Electrons    NEL             ....  104
 Basis Dimension        Dim             ....  165
 Nuclear Repulsion      ENuc            ....    655.3676652653 Eh

Convergence Acceleration:
 DIIS                   CNVDIIS         .... on
   Start iteration      DIISMaxIt       ....    12
   Startup error        DIISStart       ....  0.200000
   # of expansion vecs  DIISMaxEq       ....     5
   Bias factor          DIISBfac        ....   1.050
   Max. coefficient     DIISMaxC        ....  10.000
 Newton-Raphson         CNVNR           .... off
 SOSCF                  CNVSOSCF        .... on
   Start iteration      SOSCFMaxIt      ....   150
   Startup grad/error   SOSCFStart      ....  0.003300
 Level Shifting         CNVShift        .... on
   Level shift para.    LevelShift      ....    0.2500
   Turn off err/grad.   ShiftErr        ....    0.0010
 Zerner damping         CNVZerner       .... off
 Static damping         CNVDamp         .... on
   Fraction old density DampFac         ....    0.7000
   Max. Damping (<1)    DampMax         ....    0.9800
   Min. Damping (>=0)   DampMin         ....    0.0000
   Turn off err/grad.   DampErr         ....    0.1000
 Fernandez-Rico         CNVRico         .... off

SCF Procedure:
 Maximum # iterations   MaxIter         ....   250
 SCF integral mode      SCFMode         .... Direct
   Integral package                     .... LIBINT
 Reset frequency        DirectResetFreq ....    20
 Integral Threshold     Thresh          ....  2.500e-11 Eh
 Primitive CutOff       TCut            ....  2.500e-12 Eh

Convergence Tolerance:
 Convergence Check Mode ConvCheckMode   .... Total+1el-Energy
 Convergence forced     ConvForced      .... 0
 Energy Change          TolE            ....  1.000e-08 Eh
 1-El. energy change                    ....  1.000e-05 Eh
 Orbital Gradient       TolG            ....  1.000e-05
 Orbital Rotation angle TolX            ....  1.000e-05
 DIIS Error             TolErr          ....  5.000e-07


Diagonalization of the overlap matrix:
Smallest eigenvalue                        ... 1.956e-03
Time for diagonalization                   ...    0.007 sec
Threshold for overlap eigenvalues          ... 1.000e-08
Number of eigenvalues below threshold      ... 0
Time for construction of square roots      ...    0.002 sec
Total time needed                          ...    0.009 sec

-------------------
DFT GRID GENERATION
-------------------

General Integration Accuracy     IntAcc      ...  4.340
Radial Grid Type                 RadialGrid  ... Gauss-Chebyshev
Angular Grid (max. acc.)         AngularGrid ... Lebedev-110
Angular grid pruning method      GridPruning ... 3 (G Style)
Weight generation scheme         WeightScheme... Becke
Basis function cutoff            BFCut       ...    1.0000e-11
Integration weight cutoff        WCut        ...    1.0000e-14
Grids for H and He will be reduced by one unit

# of grid points (after initial pruning)     ...  19550 (   0.0 sec)
# of grid points (after weights+screening)   ...  18397 (   0.0 sec)
nearest neighbour list constructed           ...    0.0 sec
Grid point re-assignment to atoms done       ...    0.0 sec
Grid point division into batches done        ...    0.0 sec
Reduced shell lists constructed in    0.1 sec

Total number of grid points                  ...    18397
Total number of batches                      ...      298
Average number of points per batch           ...       61
Average number of grid points per atom       ...     1226
Average number of shells per batch           ...    57.57 (76.75%)
Average number of basis functions per batch  ...   123.09 (74.60%)
Average number of large shells per batch     ...    48.20 (83.73%)
Average number of large basis fcns per batch ...   100.01 (81.25%)
Maximum spatial batch extension              ...   5.63,  6.64,  4.53 au
Average spatial batch extension              ...   0.50,  0.49,  0.45 au

Time for grid setup =    0.098 sec

------------------------------
INITIAL GUESS: MODEL POTENTIAL
------------------------------
Loading Hartree-Fock densities                     ... done
Calculating cut-offs                               ... done
Setting up the integral package                    ... done
Initializing the effective Hamiltonian             ... done
Starting the Coulomb interaction                   ... done (   0.0 sec)
Reading the grid                                   ... done
Mapping shells                                     ... done
Starting the XC term evaluation                    ... done (   0.0 sec)
  promolecular density results
     # of electrons  =    102.991749229
     EX              =   -201.622143871
     EC              =     -4.489756475
     EX+EC           =   -206.111900346
Transforming the Hamiltonian                       ... done (   0.0 sec)
Diagonalizing the Hamiltonian                      ... done (   0.0 sec)
Back transforming the eigenvectors                 ... done (   0.0 sec)
Now organizing SCF variables                       ... done
                      ------------------
                      INITIAL GUESS DONE (   0.3 sec)
                      ------------------
--------------------
COSX GRID GENERATION
--------------------

General Integration Accuracy     IntAcc      ...  3.340
Radial Grid Type                 RadialGrid  ... Gauss-Chebyshev
Angular Grid (max. acc.)         AngularGrid ... Lebedev-50
Angular grid pruning method      GridPruning ... 3 (G Style)
Weight generation scheme         WeightScheme... Becke
Basis function cutoff            BFCut       ...    1.0000e-11
Integration weight cutoff        WCut        ...    1.0000e-14
Grids for H and He will be reduced by one unit

# of grid points (after initial pruning)     ...   7284 (   0.0 sec)
# of grid points (after weights+screening)   ...   6848 (   0.0 sec)
nearest neighbour list constructed           ...    0.0 sec
Grid point re-assignment to atoms done       ...    0.0 sec
Grid point division into batches done        ...    0.0 sec
Reduced shell lists constructed in    0.0 sec

Total number of grid points                  ...     6848
Total number of batches                      ...      114
Average number of points per batch           ...       60
Average number of grid points per atom       ...      457
Average number of shells per batch           ...    58.07 (77.42%)
Average number of basis functions per batch  ...   124.13 (75.23%)
Average number of large shells per batch     ...    50.03 (86.17%)
Average number of large basis fcns per batch ...   104.37 (84.08%)
Maximum spatial batch extension              ...   6.88,  6.32,  4.01 au
Average spatial batch extension              ...   0.62,  0.65,  0.53 au

Overlap Fitting                  UseSFitting ... on
Constructing numerical overlap ... done (      0.0 sec)
Inverting numerical overlap    ... done (      0.0 sec)
Obtaining analytic overlap     ... done (      0.0 sec)
Final contraction and storage  ... done (      0.0 sec)


General Integration Accuracy     IntAcc      ...  3.670
Radial Grid Type                 RadialGrid  ... Gauss-Chebyshev
Angular Grid (max. acc.)         AngularGrid ... Lebedev-50
Angular grid pruning method      GridPruning ... 3 (G Style)
Weight generation scheme         WeightScheme... Becke
Basis function cutoff            BFCut       ...    1.0000e-11
Integration weight cutoff        WCut        ...    1.0000e-14
Grids for H and He will be reduced by one unit

# of grid points (after initial pruning)     ...   9160 (   0.0 sec)
# of grid points (after weights+screening)   ...   8595 (   0.0 sec)
nearest neighbour list constructed           ...    0.0 sec
Grid point re-assignment to atoms done       ...    0.0 sec
Grid point division into batches done        ...    0.0 sec
Reduced shell lists constructed in    0.0 sec

Total number of grid points                  ...     8595
Total number of batches                      ...      140
Average number of points per batch           ...       61
Average number of grid points per atom       ...      573
Average number of shells per batch           ...    57.56 (76.74%)
Average number of basis functions per batch  ...   122.94 (74.51%)
Average number of large shells per batch     ...    49.14 (85.38%)
Average number of large basis fcns per batch ...   102.19 (83.12%)
Maximum spatial batch extension              ...   6.70,  6.74,  5.00 au
Average spatial batch extension              ...   0.59,  0.58,  0.54 au

Overlap Fitting                  UseSFitting ... on
Constructing numerical overlap ... done (      0.0 sec)
Inverting numerical overlap    ... done (      0.0 sec)
Obtaining analytic overlap     ... done (      0.0 sec)
Final contraction and storage  ... done (      0.0 sec)


General Integration Accuracy     IntAcc      ...  4.010
Radial Grid Type                 RadialGrid  ... Gauss-Chebyshev
Angular Grid (max. acc.)         AngularGrid ... Lebedev-110
Angular grid pruning method      GridPruning ... 3 (G Style)
Weight generation scheme         WeightScheme... Becke
Basis function cutoff            BFCut       ...    1.0000e-11
Integration weight cutoff        WCut        ...    1.0000e-14
Grids for H and He will be reduced by one unit

# of grid points (after initial pruning)     ...  17048 (   0.0 sec)
# of grid points (after weights+screening)   ...  16073 (   0.0 sec)
nearest neighbour list constructed           ...    0.0 sec
Grid point re-assignment to atoms done       ...    0.0 sec
Grid point division into batches done        ...    0.0 sec
Reduced shell lists constructed in    0.0 sec

Total number of grid points                  ...    16073
Total number of batches                      ...      258
Average number of points per batch           ...       62
Average number of grid points per atom       ...     1072
Average number of shells per batch           ...    57.76 (77.01%)
Average number of basis functions per batch  ...   123.85 (75.06%)
Average number of large shells per batch     ...    48.95 (84.76%)
Average number of large basis fcns per batch ...   101.80 (82.20%)
Maximum spatial batch extension              ...   5.73,  5.45,  4.07 au
Average spatial batch extension              ...   0.53,  0.51,  0.50 au

Overlap Fitting                  UseSFitting ... on
Constructing numerical overlap ... done (      0.0 sec)
Inverting numerical overlap    ... done (      0.0 sec)
Obtaining analytic overlap     ... done (      0.0 sec)
Final contraction and storage  ... done (      0.0 sec)

Time for X-Grid setup             =    0.201 sec

--------------------
CPCM SOLVATION MODEL
--------------------
CPCM parameters:
  Epsilon                                         ...      20.7000
  Refrac                                          ...       1.3590
  Rsolv                                           ...       1.3000
  Surface type                                    ... GAUSSIAN VDW
  Epsilon function type                           ...         CPCM
Radii:
 Radius for C  used is    3.8550 Bohr (=   2.0400 Ang.)
 Radius for Br used is    4.1952 Bohr (=   2.2200 Ang.)
 Radius for H  used is    2.4944 Bohr (=   1.3200 Ang.)
Calculating surface                               ...        done! (  0.0s)
GEPOL surface points                              ...          914
GEPOL Volume                                      ...    1155.4166
GEPOL Surface-area                                ...     682.2243
Calculating surface distance matrix               ...        done! (  0.0s)
Performing Cholesky decomposition & store         ...        done! (  0.0s)
Overall time for CPCM initialization              ...                 0.0s
--------------
SCF ITERATIONS
--------------
ITER       Energy         Delta-E        Max-DP      RMS-DP      [F,P]     Damp
               ***  Starting incremental Fock matrix formation  ***
  0  -5304.6338163975   0.000000000000 0.11180249  0.00208764  0.1559712 0.7000
  1  -5304.7116622918  -0.077845894243 0.08507375  0.00154482  0.0832751 0.7000
                               ***Turning on DIIS***
  2  -5304.7466205746  -0.034958282820 0.16750798  0.00289215  0.0413166 0.0000
  3  -5304.7968445832  -0.050224008583 0.03678396  0.00094107  0.0436329 0.0000
  4  -5304.8092158851  -0.012371301954 0.01821439  0.00029933  0.0084175 0.0000
                      *** Initiating the SOSCF procedure ***
                           *** Shutting down DIIS ***
                      *** Re-Reading the Fockian *** 
                      *** Removing any level shift *** 
ITER      Energy       Delta-E        Grad      Rot      Max-DP    RMS-DP
  5  -5304.80976535  -0.0005494600  0.000819  0.000819  0.003009  0.000085
               *** Restarting incremental Fock matrix formation ***
  6  -5304.80978640  -0.0000210570  0.000354  0.001106  0.001092  0.000050
  7  -5304.80978810  -0.0000016956  0.000196  0.000139  0.000595  0.000014
  8  -5304.80979005  -0.0000019513  0.000020  0.000042  0.000062  0.000003
  9  -5304.80979003   0.0000000167  0.000015  0.000015  0.000039  0.000001
 10  -5304.80979008  -0.0000000429  0.000005  0.000012  0.000015  0.000001
 11  -5304.80979014  -0.0000000669  0.000006  0.000003  0.000011  0.000000
                  ***Gradient check signals convergence***
              ***Rediagonalizing the Fockian in SOSCF/NRSCF***

               *****************************************************
               *                     SUCCESS                       *
               *           SCF CONVERGED AFTER  12 CYCLES          *
               *****************************************************

Setting up the final grid:

General Integration Accuracy     IntAcc      ...  4.670
Radial Grid Type                 RadialGrid  ... Gauss-Chebyshev
Angular Grid (max. acc.)         AngularGrid ... Lebedev-302
Angular grid pruning method      GridPruning ... 3 (G Style)
Weight generation scheme         WeightScheme... Becke
Basis function cutoff            BFCut       ...    1.0000e-11
Integration weight cutoff        WCut        ...    1.0000e-14
Grids for H and He will be reduced by one unit

# of grid points (after initial pruning)     ...  74626 (   0.0 sec)
# of grid points (after weights+screening)   ...  69243 (   0.1 sec)
nearest neighbour list constructed           ...    0.0 sec
Grid point re-assignment to atoms done       ...    0.0 sec
Grid point division into batches done        ...    0.3 sec
Reduced shell lists constructed in    0.4 sec
[1631282534.037948] [comp0811:50682:0]            sys.c:618  UCX  ERROR shmget(size=6291456 flags=0xfb0) for mm_recv_desc failed: Operation not permitted, please check shared memory limits by 'ipcs -l'
[1631282534.037891] [comp0811:50680:0]            sys.c:618  UCX  ERROR shmget(size=6291456 flags=0xfb0) for mm_recv_desc failed: Operation not permitted, please check shared memory limits by 'ipcs -l'

Total number of grid points                  ...    69243
Total number of batches                      ...     1091
Average number of points per batch           ...       63
Average number of grid points per atom       ...     4616
Average number of shells per batch           ...    56.41 (75.21%)
Average number of basis functions per batch  ...   119.68 (72.53%)
Average number of large shells per batch     ...    46.10 (81.73%)
Average number of large basis fcns per batch ...    94.63 (79.07%)
Maximum spatial batch extension              ...   4.69,  4.17,  3.73 au
Average spatial batch extension              ...   0.31,  0.32,  0.30 au

Final grid set up in    0.4 sec
Final integration                            ... done (   0.2 sec)
Change in XC energy                          ...    -0.000370506
Integrated number of electrons               ...   104.000076827
Previous integrated no of electrons          ...   103.997930430
Old exchange energy                            =    -50.834923206 Eh
New exchange energy                            =    -50.835086958 Eh
Exchange energy change after final integration =     -0.000163753 Eh
Total energy after final integration           =  -5304.810324308 Eh
Final COS-X integration done in                =     1.199 sec

----------------
TOTAL SCF ENERGY
----------------

Total Energy       :        -5304.81032431 Eh         -144351.22760 eV

Components:
Nuclear Repulsion  :          655.36766527 Eh           17833.46081 eV
Electronic Energy  :        -5960.17798957 Eh         -162184.68841 eV
One Electron Energy:        -8704.28041756 Eh         -236855.51166 eV
Two Electron Energy:         2744.10242798 Eh           74670.82326 eV
CPCM Dielectric    :           -0.11542344 Eh              -3.14083 eV

Virial components:
Potential Energy   :       -10602.58465727 Eh         -288510.99614 eV
Kinetic Energy     :         5297.77433296 Eh          144159.76854 eV
Virial Ratio       :            2.00132810


DFT components:
N(Alpha)           :       52.000038413679 electrons
N(Beta)            :       52.000038413679 electrons
N(Total)           :      104.000076827359 electrons
E(X)               :     -151.834671746499 Eh       
E(C)               :       -4.541894874450 Eh       
E(XC)              :     -156.376566620949 Eh       
DFET-embed. en.    :        0.000000000000 Eh       
CPCM Solvation Model Properties:
Surface-charge          :            0.97579032
Charge-correction       :           -0.00329336 Eh              -0.08962 eV
Free-energy (cav+disp)  :            0.00416439 Eh               0.11332 eV
Corrected G(solv)       :        -5304.80945328 Eh         -144351.20390 eV

---------------
SCF CONVERGENCE
---------------

  Last Energy change         ...    9.2681e-08  Tolerance :   1.0000e-08
  Last MAX-Density change    ...    5.3291e-15  Tolerance :   1.0000e-07
  Last RMS-Density change    ...    8.9382e-17  Tolerance :   5.0000e-09
  Last Orbital Gradient      ...    1.0381e-06  Tolerance :   1.0000e-05
  Last Orbital Rotation      ...    1.0077e-06  Tolerance :   1.0000e-05

             **** THE GBW FILE WAS UPDATED (manual_reactants_333.gbw) ****
             **** DENSITY FILE WAS UPDATED (manual_reactants_333.scfp) ****
             **** ENERGY FILE WAS UPDATED (manual_reactants_333.en.tmp) ****
             **** THE GBW FILE WAS UPDATED (manual_reactants_333.gbw) ****
             **** DENSITY FILE WAS UPDATED (manual_reactants_333.scfp) ****
----------------
ORBITAL ENERGIES
----------------

  NO   OCC          E(Eh)            E(eV) 
   0   2.0000    -483.156457    -13147.3556 
   1   2.0000    -483.061523    -13144.7723 
   2   2.0000     -62.591746     -1703.2080 
   3   2.0000     -62.496921     -1700.6277 
   4   2.0000     -56.381069     -1534.2069 
   5   2.0000     -56.378573     -1534.1390 
   6   2.0000     -56.378561     -1534.1386 
   7   2.0000     -56.284813     -1531.5876 
   8   2.0000     -56.284717     -1531.5850 
   9   2.0000     -56.284715     -1531.5849 
  10   2.0000     -10.280051      -279.7344 
  11   2.0000     -10.221667      -278.1457 
  12   2.0000     -10.221481      -278.1406 
  13   2.0000     -10.221236      -278.1340 
  14   2.0000      -8.736556      -237.7338 
  15   2.0000      -8.640442      -235.1184 
  16   2.0000      -6.550827      -178.2571 
  17   2.0000      -6.538587      -177.9240 
  18   2.0000      -6.538563      -177.9233 
  19   2.0000      -6.447221      -175.4378 
  20   2.0000      -6.446508      -175.4184 
  21   2.0000      -6.446494      -175.4180 
  22   2.0000      -2.636252       -71.7361 
  23   2.0000      -2.633011       -71.6479 
  24   2.0000      -2.632934       -71.6458 
  25   2.0000      -2.623071       -71.3774 
  26   2.0000      -2.623049       -71.3768 
  27   2.0000      -2.533962       -68.9526 
  28   2.0000      -2.533830       -68.9490 
  29   2.0000      -2.533779       -68.9476 
  30   2.0000      -2.533229       -68.9327 
  31   2.0000      -2.533212       -68.9322 
  32   2.0000      -0.847409       -23.0592 
  33   2.0000      -0.737702       -20.0739 
  34   2.0000      -0.697995       -18.9934 
  35   2.0000      -0.696851       -18.9623 
  36   2.0000      -0.650196       -17.6927 
  37   2.0000      -0.543471       -14.7886 
  38   2.0000      -0.464545       -12.6409 
  39   2.0000      -0.451037       -12.2733 
  40   2.0000      -0.450345       -12.2545 
  41   2.0000      -0.396982       -10.8024 
  42   2.0000      -0.395616       -10.7653 
  43   2.0000      -0.370277       -10.0758 
  44   2.0000      -0.348433        -9.4813 
  45   2.0000      -0.347751        -9.4628 
  46   2.0000      -0.326671        -8.8892 
  47   2.0000      -0.271309        -7.3827 
  48   2.0000      -0.271142        -7.3781 
  49   2.0000      -0.211646        -5.7592 
  50   2.0000      -0.211501        -5.7552 
  51   2.0000      -0.206896        -5.6299 
  52   0.0000       0.028753         0.7824 
  53   0.0000       0.074707         2.0329 
  54   0.0000       0.133166         3.6236 
  55   0.0000       0.133887         3.6432 
  56   0.0000       0.140861         3.8330 
  57   0.0000       0.142284         3.8718 
  58   0.0000       0.142696         3.8830 
  59   0.0000       0.181282         4.9329 
  60   0.0000       0.183466         4.9924 
  61   0.0000       0.208219         5.6659 
  62   0.0000       0.211621         5.7585 
  63   0.0000       0.239083         6.5058 
  64   0.0000       0.239811         6.5256 
  65   0.0000       0.322194         8.7673 
  66   0.0000       0.382171        10.3994 
  67   0.0000       0.400560        10.8998 
  68   0.0000       0.402159        10.9433 
  69   0.0000       0.418783        11.3957 
  70   0.0000       0.419633        11.4188 
  71   0.0000       0.500964        13.6319 
  72   0.0000       0.529063        14.3965 
  73   0.0000       0.531106        14.4521 
  74   0.0000       0.551428        15.0051 
  75   0.0000       0.572320        15.5736 
  76   0.0000       0.575232        15.6528 
  77   0.0000       0.576071        15.6757 
  78   0.0000       0.635994        17.3063 
  79   0.0000       0.636506        17.3202 
  80   0.0000       0.637690        17.3524 
  81   0.0000       0.637903        17.3582 
  82   0.0000       0.642446        17.4818 
  83   0.0000       0.642581        17.4855 
  84   0.0000       0.653193        17.7743 
  85   0.0000       0.656392        17.8613 
  86   0.0000       0.669350        18.2139 
  87   0.0000       0.685174        18.6445 
  88   0.0000       0.687852        18.7174 
  89   0.0000       0.688861        18.7449 
  90   0.0000       0.695878        18.9358 
  91   0.0000       0.696502        18.9528 
  92   0.0000       0.721879        19.6433 
  93   0.0000       0.723925        19.6990 
  94   0.0000       0.731771        19.9125 
  95   0.0000       0.748120        20.3574 
  96   0.0000       0.749565        20.3967 
  97   0.0000       0.763855        20.7856 
  98   0.0000       0.764596        20.8057 
  99   0.0000       0.778571        21.1860 
 100   0.0000       0.782446        21.2914 
 101   0.0000       0.865092        23.5404 
 102   0.0000       0.869931        23.6720 
 103   0.0000       0.941973        25.6324 
 104   0.0000       1.022482        27.8231 
 105   0.0000       1.123714        30.5778 
 106   0.0000       1.129386        30.7322 
 107   0.0000       1.173677        31.9374 
 108   0.0000       1.180477        32.1224 
 109   0.0000       1.195494        32.5310 
 110   0.0000       1.283000        34.9122 
 111   0.0000       1.509444        41.0741 
 112   0.0000       1.513737        41.1909 
 113   0.0000       1.550932        42.2030 
 114   0.0000       1.551292        42.2128 
 115   0.0000       1.553319        42.2680 
 116   0.0000       1.599068        43.5129 
 117   0.0000       1.602459        43.6051 
 118   0.0000       1.655127        45.0383 
 119   0.0000       1.726307        46.9752 
 120   0.0000       1.772208        48.2242 
 121   0.0000       1.773380        48.2561 
 122   0.0000       1.826497        49.7015 
 123   0.0000       1.831744        49.8443 
 124   0.0000       1.844725        50.1975 
 125   0.0000       1.847193        50.2647 
 126   0.0000       1.856574        50.5200 
 127   0.0000       1.876703        51.0677 
 128   0.0000       1.928613        52.4802 
 129   0.0000       1.930044        52.5192 
 130   0.0000       1.944570        52.9145 
 131   0.0000       2.015731        54.8508 
 132   0.0000       2.167546        58.9819 
 133   0.0000       2.169093        59.0240 
 134   0.0000       2.179527        59.3080 
 135   0.0000       2.214888        60.2702 
 136   0.0000       2.216923        60.3255 
 137   0.0000       2.366535        64.3967 
 138   0.0000       2.403147        65.3930 
 139   0.0000       2.404735        65.4362 
 140   0.0000       2.461623        66.9842 
 141   0.0000       2.550637        69.4064 
 142   0.0000       2.554188        69.5030 
 143   0.0000       2.610727        71.0415 
 144   0.0000       2.652231        72.1709 
 145   0.0000       2.652910        72.1894 
 146   0.0000       2.740578        74.5749 
 147   0.0000       2.879649        78.3592 
 148   0.0000       2.883425        78.4620 
 149   0.0000       2.914688        79.3127 
 150   0.0000       2.960326        80.5546 
 151   0.0000       2.962181        80.6050 
 152   0.0000       2.973811        80.9215 
 153   0.0000       3.073039        83.6216 
 154   0.0000       3.077637        83.7468 
 155   0.0000       3.526488        95.9606 
 156   0.0000       3.526937        95.9728 
 157   0.0000       3.564879        97.0053 
 158   0.0000       3.564906        97.0060 
 159   0.0000       3.565168        97.0132 
 160   0.0000       3.565376        97.0188 
 161   0.0000       3.607650        98.1692 
 162   0.0000       3.645724        99.2052 
 163   0.0000       3.646870        99.2364 
 164   0.0000       3.864652       105.1625 

                    ********************************
                    * MULLIKEN POPULATION ANALYSIS *
                    ********************************

-----------------------
MULLIKEN ATOMIC CHARGES
-----------------------
   0 C :    0.023609
   1 C :   -0.448517
   2 C :    0.024925
   3 C :    0.026049
   4 Br:   -0.153372
   5 H :    0.051165
   6 H :    0.049369
   7 H :    0.053788
   8 H :    0.051084
   9 H :    0.051928
  10 H :    0.049743
  11 H :    0.050442
  12 H :    0.054595
  13 H :    0.050296
  14 Br:   -0.935104
Sum of atomic charges:   -1.0000000

--------------------------------
MULLIKEN REDUCED ORBITAL CHARGES
--------------------------------
  0 C s       :     3.011228  s :     3.011228
      pz      :     0.992381  p :     2.938281
      px      :     1.013905
      py      :     0.931995
      dz2     :     0.006592  d :     0.026882
      dxz     :     0.002932
      dyz     :     0.005446
      dx2y2   :     0.007742
      dxy     :     0.004171
  1 C s       :     3.360209  s :     3.360209
      pz      :     0.905994  p :     3.034093
      px      :     1.053232
      py      :     1.074867
      dz2     :     0.011649  d :     0.054215
      dxz     :     0.009149
      dyz     :     0.010038
      dx2y2   :     0.013224
      dxy     :     0.010156
  2 C s       :     3.017251  s :     3.017251
      pz      :     1.015787  p :     2.930922
      px      :     0.895505
      py      :     1.019629
      dz2     :     0.005378  d :     0.026902
      dxz     :     0.005167
      dyz     :     0.004474
      dx2y2   :     0.006864
      dxy     :     0.005020
  3 C s       :     3.012296  s :     3.012296
      pz      :     0.976126  p :     2.934836
      px      :     1.002087
      py      :     0.956623
      dz2     :     0.006939  d :     0.026819
      dxz     :     0.003226
      dyz     :     0.005014
      dx2y2   :     0.008391
      dxy     :     0.003249
  4 Brs       :     7.976365  s :     7.976365
      pz      :     5.282518  p :    17.130399
      px      :     5.881126
      py      :     5.966756
      dz2     :     2.024263  d :    10.046608
      dxz     :     2.013043
      dyz     :     2.006531
      dx2y2   :     2.002018
      dxy     :     2.000753
  5 H s       :     0.924915  s :     0.924915
      pz      :     0.013669  p :     0.023920
      px      :     0.005980
      py      :     0.004271
  6 H s       :     0.926949  s :     0.926949
      pz      :     0.007698  p :     0.023683
      px      :     0.006380
      py      :     0.009605
  7 H s       :     0.922551  s :     0.922551
      pz      :     0.004833  p :     0.023661
      px      :     0.014732
      py      :     0.004096
  8 H s       :     0.924868  s :     0.924868
      pz      :     0.013298  p :     0.024048
      px      :     0.005500
      py      :     0.005250
  9 H s       :     0.924264  s :     0.924264
      pz      :     0.008434  p :     0.023809
      px      :     0.005340
      py      :     0.010034
 10 H s       :     0.926616  s :     0.926616
      pz      :     0.006413  p :     0.023641
      px      :     0.004509
      py      :     0.012719
 11 H s       :     0.925905  s :     0.925905
      pz      :     0.006377  p :     0.023653
      px      :     0.005283
      py      :     0.011993
 12 H s       :     0.921736  s :     0.921736
      pz      :     0.004675  p :     0.023669
      px      :     0.014698
      py      :     0.004295
 13 H s       :     0.925730  s :     0.925730
      pz      :     0.013610  p :     0.023974
      px      :     0.005911
      py      :     0.004452
 14 Brs       :     7.998353  s :     7.998353
      pz      :     5.943884  p :    17.935322
      px      :     5.993192
      py      :     5.998246
      dz2     :     2.000665  d :    10.001429
      dxz     :     2.000422
      dyz     :     2.000276
      dx2y2   :     2.000034
      dxy     :     2.000031


                     *******************************
                     * LOEWDIN POPULATION ANALYSIS *
                     *******************************

----------------------
LOEWDIN ATOMIC CHARGES
----------------------
   0 C :   -0.071879
   1 C :   -0.114788
   2 C :   -0.071089
   3 C :   -0.071991
   4 Br:   -0.033615
   5 H :    0.035970
   6 H :    0.031331
   7 H :    0.031511
   8 H :    0.035719
   9 H :    0.031009
  10 H :    0.031208
  11 H :    0.031224
  12 H :    0.031984
  13 H :    0.035789
  14 Br:   -0.932384

-------------------------------
LOEWDIN REDUCED ORBITAL CHARGES
-------------------------------
  0 C s       :     2.849707  s :     2.849707
      pz      :     1.066248  p :     3.149885
      px      :     1.064548
      py      :     1.019089
      dz2     :     0.017196  d :     0.072286
      dxz     :     0.007421
      dyz     :     0.015428
      dx2y2   :     0.021372
      dxy     :     0.010870
  1 C s       :     2.916306  s :     2.916306
      pz      :     0.942069  p :     3.081824
      px      :     1.061502
      py      :     1.078253
      dz2     :     0.024408  d :     0.116658
      dxz     :     0.017912
      dyz     :     0.022368
      dx2y2   :     0.031045
      dxy     :     0.020925
  2 C s       :     2.850002  s :     2.850002
      pz      :     1.073651  p :     3.148599
      px      :     1.006493
      py      :     1.068455
      dz2     :     0.014558  d :     0.072488
      dxz     :     0.013158
      dyz     :     0.011972
      dx2y2   :     0.020210
      dxy     :     0.012591
  3 C s       :     2.850068  s :     2.850068
      pz      :     1.059568  p :     3.149767
      px      :     1.058192
      py      :     1.032006
      dz2     :     0.017855  d :     0.072156
      dxz     :     0.008476
      dyz     :     0.014620
      dx2y2   :     0.022362
      dxy     :     0.008842
  4 Brs       :     7.853500  s :     7.853500
      pz      :     5.305245  p :    17.110345
      px      :     5.862693
      py      :     5.942407
      dz2     :     2.037656  d :    10.069770
      dxz     :     2.019857
      dyz     :     2.008791
      dx2y2   :     2.002476
      dxy     :     2.000991
  5 H s       :     0.897468  s :     0.897468
      pz      :     0.038340  p :     0.066562
      px      :     0.015500
      py      :     0.012722
  6 H s       :     0.902009  s :     0.902009
      pz      :     0.020549  p :     0.066661
      px      :     0.017031
      py      :     0.029081
  7 H s       :     0.901786  s :     0.901786
      pz      :     0.012558  p :     0.066703
      px      :     0.041539
      py      :     0.012607
  8 H s       :     0.897743  s :     0.897743
      pz      :     0.036633  p :     0.066538
      px      :     0.017044
      py      :     0.012861
  9 H s       :     0.902131  s :     0.902131
      pz      :     0.022195  p :     0.066859
      px      :     0.017136
      py      :     0.027528
 10 H s       :     0.902383  s :     0.902383
      pz      :     0.016442  p :     0.066409
      px      :     0.014537
      py      :     0.035429
 11 H s       :     0.902198  s :     0.902198
      pz      :     0.017189  p :     0.066578
      px      :     0.014012
      py      :     0.035377
 12 H s       :     0.901380  s :     0.901380
      pz      :     0.012532  p :     0.066637
      px      :     0.041734
      py      :     0.012371
 13 H s       :     0.897631  s :     0.897631
      pz      :     0.038521  p :     0.066581
      px      :     0.015578
      py      :     0.012481
 14 Brs       :     7.997972  s :     7.997972
      pz      :     5.940906  p :    17.932012
      px      :     5.992858
      py      :     5.998248
      dz2     :     2.001239  d :    10.002399
      dxz     :     2.000693
      dyz     :     2.000376
      dx2y2   :     2.000049
      dxy     :     2.000043


                      *****************************
                      * MAYER POPULATION ANALYSIS *
                      *****************************

  NA   - Mulliken gross atomic population
  ZA   - Total nuclear charge
  QA   - Mulliken gross atomic charge
  VA   - Mayer's total valence
  BVA  - Mayer's bonded valence
  FA   - Mayer's free valence

  ATOM       NA         ZA         QA         VA         BVA        FA
  0 C      5.9764     6.0000     0.0236     3.8340     3.8340    -0.0000
  1 C      6.4485     6.0000    -0.4485     4.0994     4.0994     0.0000
  2 C      5.9751     6.0000     0.0249     3.8324     3.8324    -0.0000
  3 C      5.9740     6.0000     0.0260     3.8314     3.8314    -0.0000
  4 Br    35.1534    35.0000    -0.1534     1.0636     1.0636    -0.0000
  5 H      0.9488     1.0000     0.0512     0.9921     0.9921    -0.0000
  6 H      0.9506     1.0000     0.0494     0.9979     0.9979     0.0000
  7 H      0.9462     1.0000     0.0538     0.9968     0.9968    -0.0000
  8 H      0.9489     1.0000     0.0511     0.9925     0.9925    -0.0000
  9 H      0.9481     1.0000     0.0519     0.9971     0.9971    -0.0000
 10 H      0.9503     1.0000     0.0497     0.9967     0.9967     0.0000
 11 H      0.9496     1.0000     0.0504     0.9973     0.9973    -0.0000
 12 H      0.9454     1.0000     0.0546     0.9960     0.9960     0.0000
 13 H      0.9497     1.0000     0.0503     0.9919     0.9919    -0.0000
 14 Br    35.9351    35.0000    -0.9351     0.1291     0.1291     0.0000

  Mayer bond orders larger than 0.100000
B(  0-C ,  1-C ) :   1.0083 B(  0-C ,  5-H ) :   0.9544 B(  0-C ,  6-H ) :   0.9647 
B(  0-C ,  7-H ) :   0.9651 B(  1-C ,  2-C ) :   1.0043 B(  1-C ,  3-C ) :   1.0065 
B(  1-C ,  4-Br) :   0.9413 B(  2-C ,  8-H ) :   0.9566 B(  2-C ,  9-H ) :   0.9661 
B(  2-C , 10-H ) :   0.9665 B(  3-C , 11-H ) :   0.9647 B(  3-C , 12-H ) :   0.9661 
B(  3-C , 13-H ) :   0.9550 


------------------
HIRSHFELD ANALYSIS
------------------

Total integrated alpha density =     51.998965215
Total integrated beta density  =     51.998965215

  ATOM     CHARGE      SPIN    
   0 C   -0.081033    0.000000
   1 C    0.063720    0.000000
   2 C   -0.079660    0.000000
   3 C   -0.080219    0.000000
   4 Br  -0.189634    0.000000
   5 H    0.033209    0.000000
   6 H    0.028204    0.000000
   7 H    0.028542    0.000000
   8 H    0.032846    0.000000
   9 H    0.028247    0.000000
  10 H    0.028891    0.000000
  11 H    0.027866    0.000000
  12 H    0.028964    0.000000
  13 H    0.033266    0.000000
  14 Br  -0.901140    0.000000

  TOTAL  -0.997930    0.000000

-------
TIMINGS
-------

Total SCF time: 0 days 0 hours 0 min 15 sec 

Total time                  ....      15.243 sec
Sum of individual times     ....      15.053 sec  ( 98.8%)

Fock matrix formation       ....      14.062 sec  ( 92.3%)
  Split-RI-J                ....       1.911 sec  ( 13.6% of F)
  Chain of spheres X        ....       7.861 sec  ( 55.9% of F)
  COS-X 1 center corr.      ....       0.000 sec  (  0.0% of F)
  XC integration            ....       0.791 sec  (  5.6% of F)
    Basis function eval.    ....       0.312 sec  ( 39.4% of XC)
    Density eval.           ....       0.152 sec  ( 19.2% of XC)
    XC-Functional eval.     ....       0.067 sec  (  8.4% of XC)
    XC-Potential eval.      ....       0.210 sec  ( 26.6% of XC)
Diagonalization             ....       0.022 sec  (  0.1%)
Density matrix formation    ....       0.005 sec  (  0.0%)
Population analysis         ....       0.056 sec  (  0.4%)
Initial guess               ....       0.159 sec  (  1.0%)
Orbital Transformation      ....       0.000 sec  (  0.0%)
Orbital Orthonormalization  ....       0.000 sec  (  0.0%)
DIIS solution               ....       0.006 sec  (  0.0%)
SOSCF solution              ....       0.015 sec  (  0.1%)
Grid generation             ....       0.727 sec  (  4.8%)


-------------------------------------------------------------------------------
                          DFT DISPERSION CORRECTION                            
                                                                               
                              DFTD3 V3.1  Rev 1                                
                          USING Becke-Johnson damping                          
-------------------------------------------------------------------------------
The PBE0 functional is recognized
Active option DFTDOPT                   ...         4   

molecular C6(AA) [au] = 3452.517109 


            DFT-D V3
 parameters
 s6 scaling factor         :     1.0000 
 a1 scaling factor         :     0.4145 
 s8 scaling factor         :     1.2177 
 a2 scaling factor         :     4.8593 
 ad hoc parameters k1-k3   :    16.0000     1.3333    -4.0000 

 Edisp/kcal,au: -7.728439870129  -0.012316051574 
 E6   /kcal   :  -4.653675353 
 E8   /kcal   :  -3.074764517 
 % E8         :  39.785061007 

-------------------------   ----------------
Dispersion correction           -0.012316052
-------------------------   ----------------


-------------------------   --------------------
FINAL SINGLE POINT ENERGY     -5304.822640359213
-------------------------   --------------------

[1631282536.599114] [comp0811:50758:0]            sys.c:618  UCX  ERROR shmget(size=2097152 flags=0xfb0) for mm_recv_desc failed: Operation not permitted, please check shared memory limits by 'ipcs -l'
[1631282536.609942] [comp0811:50757:0]            sys.c:618  UCX  ERROR shmget(size=2097152 flags=0xfb0) for mm_recv_desc failed: Operation not permitted, please check shared memory limits by 'ipcs -l'
[1631282536.610126] [comp0811:50759:0]            sys.c:618  UCX  ERROR shmget(size=2097152 flags=0xfb0) for mm_recv_desc failed: Operation not permitted, please check shared memory limits by 'ipcs -l'
[1631282536.610244] [comp0811:50756:0]            sys.c:618  UCX  ERROR shmget(size=2097152 flags=0xfb0) for mm_recv_desc failed: Operation not permitted, please check shared memory limits by 'ipcs -l'
[1631282536.635542] [comp0811:50759:0]            sys.c:618  UCX  ERROR shmget(size=2097152 flags=0xb80) for ucp_am_bufs failed: Operation not permitted, please check shared memory limits by 'ipcs -l'
[1631282536.636247] [comp0811:50757:0]            sys.c:618  UCX  ERROR shmget(size=2097152 flags=0xb80) for ucp_am_bufs failed: Operation not permitted, please check shared memory limits by 'ipcs -l'
[1631282536.636858] [comp0811:50758:0]            sys.c:618  UCX  ERROR shmget(size=2097152 flags=0xb80) for ucp_am_bufs failed: Operation not permitted, please check shared memory limits by 'ipcs -l'
[1631282536.637459] [comp0811:50756:0]            sys.c:618  UCX  ERROR shmget(size=2097152 flags=0xb80) for ucp_am_bufs failed: Operation not permitted, please check shared memory limits by 'ipcs -l'


           ************************************************************
           *        Program running with 4 parallel MPI-processes     *
           *              working on a common directory               *
           ************************************************************
------------------------------------------------------------------------------
                         ORCA SCF GRADIENT CALCULATION
------------------------------------------------------------------------------

Gradient of the Kohn-Sham DFT energy:
Kohn-Sham wavefunction type      ... RKS
Hartree-Fock exchange scaling    ...    0.250
Number of operators              ...    1
Number of atoms                  ...   15
Basis set dimensions             ...  165
Integral neglect threshold       ... 2.5e-11
Integral primitive cutoff        ... 2.5e-12

Nuclear repulsion gradient       ... done
One Electron Gradient            ... done
Pre-screening matrix             ... done
RI-J gradient                    ... done
COSX-gradient                    ... done
Exchange-correlation gradient    ... done
Dispersion correction            ... done

------------------
CARTESIAN GRADIENT
------------------

   1   C   :   -0.000024761   -0.000021444   -0.000028056
   2   C   :    0.000065770   -0.000180254    0.000122460
   3   C   :   -0.000094418   -0.000265331   -0.000094266
   4   C   :    0.000150737   -0.000246261   -0.000101406
   5   Br  :    0.000986885   -0.000006845    0.003779212
   6   H   :   -0.000093765   -0.000199537   -0.000122086
   7   H   :   -0.000100039   -0.000190311   -0.000119653
   8   H   :   -0.000063114   -0.000095633   -0.000123580
   9   H   :    0.000070165   -0.000241382   -0.000162752
  10   H   :   -0.000016866   -0.000264865   -0.000157708
  11   H   :    0.000061526   -0.000264378   -0.000182598
  12   H   :    0.000081425   -0.000095332   -0.000225506
  13   H   :   -0.000006013   -0.000063061   -0.000156093
  14   H   :    0.000045820   -0.000061807   -0.000094716
  15   Br  :   -0.001387178    0.000425000   -0.004424342

Difference to translation invariance:
           :   -0.0003238269   -0.0017714404   -0.0020910921

Norm of the cartesian gradient     ...    0.0061421454
RMS gradient                       ...    0.0009156170
MAX gradient                       ...    0.0044243421

-------
TIMINGS
-------

Total SCF gradient time            ...        3.215 sec

One electron gradient       ....       0.036 sec  (  1.1%)
Prescreening matrices       ....       0.120 sec  (  3.7%)
RI-J Coulomb gradient       ....       0.301 sec  (  9.4%)
COSX gradient               ....       1.194 sec  ( 37.2%)
XC gradient                 ....       0.765 sec  ( 23.8%)
CPCM gradient               ....       0.473 sec  ( 14.7%)
   A-Matrix (El+Nuc)        ....       0.049 sec  (  1.5%)
   Potential                ....       0.425 sec  ( 13.2%)
------------------------------------------------------------------------------
                         ORCA GEOMETRY RELAXATION STEP
------------------------------------------------------------------------------

Reading the OPT-File                    .... done
Getting information on internals        .... done
Copying old internal coords+grads       .... done
Making the new internal coordinates     .... (new redundants).... done
Validating the new internal coordinates .... (new redundants).... done
Calculating the B-matrix                .... done
Calculating the G,G- and P matrices     .... done
Transforming gradient to internals      .... done
Projecting the internal gradient        .... done
Number of atoms                         ....  15
Number of internal coordinates          ....  67
Current Energy                          .... -5304.822640359 Eh
Current gradient norm                   ....     0.006142145 Eh/bohr
Maximum allowed component of the step   ....  0.300
Current trust radius                    ....  0.300
Evaluating the initial hessian          ....  (Almloef) done
Projecting the Hessian                  .... done
Forming the augmented Hessian           .... done
Diagonalizing the augmented Hessian     .... done
Last element of RFO vector              ....  0.914419370
Lowest eigenvalues of augmented Hessian:
 -0.002009101  0.010216049  0.012018591  0.012092630  0.012188075
Length of the computed step             ....  0.442650402
Warning: the length of the step is outside the trust region - taking restricted step instead
The input lambda is                     ....    -0.002009
   iter:   1  x=   -0.004774  g=   38.322236 f(x)=     0.105939
   iter:   2  x=   -0.006455  g=   18.691744 f(x)=     0.031422
   iter:   3  x=   -0.006855  g=   12.974211 f(x)=     0.005195
   iter:   4  x=   -0.006872  g=   11.967358 f(x)=     0.000205
   iter:   5  x=   -0.006872  g=   11.926606 f(x)=     0.000000
   iter:   6  x=   -0.006872  g=   11.926536 f(x)=     0.000000
   iter:   7  x=   -0.006872  g=   11.926536 f(x)=    -0.000000
The output lambda is                    ....    -0.006872 (7 iterations)
The final length of the internal step   ....  0.300000000
Converting the step to cartesian space:
 Initial RMS(Int)=    0.0366508333
Transforming coordinates:
 Iter   0:  RMS(Cart)=    0.0292673852 RMS(Int)=    0.0244526652
 Iter   1:  RMS(Cart)=    0.0143844789 RMS(Int)=    0.0122039025
 Iter   2:  RMS(Cart)=    0.0000142584 RMS(Int)=    0.0000030484
 Iter   3:  RMS(Cart)=    0.0000026410 RMS(Int)=    0.0000009031
 Iter   4:  RMS(Cart)=    0.0000013498 RMS(Int)=    0.0000004661
 Iter   5:  RMS(Cart)=    0.0000006998 RMS(Int)=    0.0000002416
 Iter   6:  RMS(Cart)=    0.0000003628 RMS(Int)=    0.0000001253
 Iter   7:  RMS(Cart)=    0.0000001881 RMS(Int)=    0.0000000650
 Iter   8:  RMS(Cart)=    0.0000000975 RMS(Int)=    0.0000000337
done
Storing new coordinates                 .... done

                                .--------------------.
          ----------------------|Geometry convergence|-------------------------
          Item                value                   Tolerance       Converged
          ---------------------------------------------------------------------
          RMS gradient        0.0005696036            0.0001000000      NO
          MAX gradient        0.0045245234            0.0003000000      NO
          RMS step            0.0366508333            0.0020000000      NO
          MAX step            0.2999034951            0.0040000000      NO
          ........................................................
          Max(Bonds)      0.1587      Max(Angles)    0.12
          Max(Dihed)        0.14      Max(Improp)    0.00
          ---------------------------------------------------------------------

The optimization has not yet converged - more geometry cycles are needed


    ---------------------------------------------------------------------------
                         Redundant Internal Coordinates
                            (Angstroem and degrees)

        Definition                    Value    dE/dq     Step     New-Value
    ----------------------------------------------------------------------------
     1. B(C   1,C   0)                1.5183 -0.000139  0.0002    1.5185   
     2. B(C   2,C   1)                1.5172 -0.000062  0.0001    1.5173   
     3. B(C   3,C   1)                1.5192  0.000148 -0.0002    1.5190   
     4. B(Br  4,C   1)                2.0073 -0.000501  0.0012    2.0085   
     5. B(H   5,C   0)                1.1037 -0.000041  0.0001    1.1037   
     6. B(H   6,C   0)                1.0995 -0.000042  0.0001    1.0996   
     7. B(H   7,C   0)                1.0997  0.000032 -0.0000    1.0996   
     8. B(H   8,C   2)                1.1036 -0.000029  0.0000    1.1037   
     9. B(H   9,C   2)                1.0990 -0.000041  0.0001    1.0990   
    10. B(H  10,C   2)                1.1004  0.000019 -0.0000    1.1003   
    11. B(H  11,C   3)                1.1000 -0.000052  0.0001    1.1000   
    12. B(H  12,C   3)                1.1001 -0.000059  0.0001    1.1002   
    13. B(H  13,C   3)                1.1034 -0.000013  0.0000    1.1034   
    14. B(Br 14,Br  4)                3.2291 -0.004525  0.1587    3.3878   
    15. A(H   5,C   0,H   7)          108.32  0.000061   -0.01    108.31   
    16. A(H   5,C   0,H   6)          108.01  0.000080   -0.02    107.99   
    17. A(C   1,C   0,H   5)          109.05 -0.000045    0.01    109.06   
    18. A(C   1,C   0,H   7)          111.54 -0.000078    0.02    111.55   
    19. A(H   6,C   0,H   7)          108.76  0.000047   -0.00    108.76   
    20. A(C   1,C   0,H   6)          111.06 -0.000056    0.01    111.07   
    21. A(C   2,C   1,C   3)          111.75 -0.000253    0.03    111.77   
    22. A(C   0,C   1,C   2)          111.02  0.000301   -0.05    110.97   
    23. A(C   3,C   1,Br  4)          107.13  0.000315   -0.10    107.03   
    24. A(C   2,C   1,Br  4)          107.03 -0.000003   -0.00    107.03   
    25. A(C   0,C   1,Br  4)          107.43 -0.000329    0.12    107.55   
    26. A(C   0,C   1,C   3)          112.16 -0.000034    0.01    112.17   
    27. A(H   8,C   2,H   9)          107.97  0.000068   -0.01    107.95   
    28. A(C   1,C   2,H   9)          111.30 -0.000021    0.00    111.30   
    29. A(C   1,C   2,H   8)          109.23 -0.000097    0.02    109.25   
    30. A(H   9,C   2,H  10)          108.41  0.000037   -0.01    108.40   
    31. A(H   8,C   2,H  10)          108.30  0.000041   -0.00    108.30   
    32. A(C   1,C   2,H  10)          111.53 -0.000022    0.01    111.53   
    33. A(H  12,C   3,H  13)          108.20  0.000001    0.01    108.21   
    34. A(H  11,C   3,H  13)          107.92 -0.000014    0.01    107.94   
    35. A(C   1,C   3,H  13)          109.29 -0.000166    0.04    109.33   
    36. A(H  11,C   3,H  12)          108.57 -0.000038   -0.01    108.56   
    37. A(C   1,C   3,H  12)          111.57  0.000094   -0.02    111.55   
    38. A(C   1,C   3,H  11)          111.17  0.000118   -0.03    111.15   
    39. L(C   1,Br  4,Br 14,C   2, 2) 177.17 -0.000020    0.01    177.17   
    40. L(C   1,Br  4,Br 14,C   2, 1) 178.06  0.000483   -0.12    177.94   
    41. D(C   3,C   1,C   0,H   7)    -56.84 -0.000089   -0.03    -56.87   
    42. D(Br  4,C   1,C   0,H   6)    -60.87  0.000103   -0.09    -60.96   
    43. D(C   2,C   1,C   0,H   6)     55.85  0.000070   -0.05     55.80   
    44. D(Br  4,C   1,C   0,H   5)   -179.79  0.000067   -0.07   -179.86   
    45. D(C   2,C   1,C   0,H   5)    -63.07  0.000034   -0.03    -63.10   
    46. D(C   3,C   1,C   0,H   6)   -178.34 -0.000056   -0.04   -178.38   
    47. D(Br  4,C   1,C   0,H   7)     60.63  0.000070   -0.07     60.56   
    48. D(C   3,C   1,C   0,H   5)     62.74 -0.000092   -0.03     62.72   
    49. D(C   2,C   1,C   0,H   7)    177.34  0.000037   -0.03    177.31   
    50. D(H   9,C   2,C   1,C   3)    174.99  0.000063    0.03    175.02   
    51. D(H   8,C   2,C   1,Br  4)    177.11 -0.000167    0.13    177.24   
    52. D(H   8,C   2,C   1,C   3)    -65.89  0.000073    0.02    -65.87   
    53. D(H   8,C   2,C   1,C   0)     60.15  0.000067    0.02     60.17   
    54. D(H   9,C   2,C   1,Br  4)     57.99 -0.000177    0.14     58.13   
    55. D(H  10,C   2,C   1,Br  4)    -63.21 -0.000194    0.14    -63.07   
    56. D(H  10,C   2,C   1,C   3)     53.78  0.000046    0.04     53.82   
    57. D(H  10,C   2,C   1,C   0)    179.83  0.000040    0.03    179.86   
    58. D(H   9,C   2,C   1,C   0)    -58.97  0.000058    0.02    -58.95   
    59. D(H  13,C   3,C   1,C   2)     61.28  0.000060   -0.05     61.23   
    60. D(H  13,C   3,C   1,C   0)    -64.13 -0.000117   -0.01    -64.15   
[...]
  99   0.0000       0.775476        21.1018 
 100   0.0000       0.779073        21.1996 
 101   0.0000       0.840330        22.8665 
 102   0.0000       0.862621        23.4731 
 103   0.0000       0.864756        23.5312 
 104   0.0000       1.019511        27.7423 
 105   0.0000       1.122182        30.5361 
 106   0.0000       1.127227        30.6734 
 107   0.0000       1.157291        31.4915 
 108   0.0000       1.171545        31.8794 
 109   0.0000       1.176155        32.0048 
 110   0.0000       1.279736        34.8234 
 111   0.0000       1.507824        41.0300 
 112   0.0000       1.510849        41.1123 
 113   0.0000       1.548404        42.1342 
 114   0.0000       1.548911        42.1480 
 115   0.0000       1.550806        42.1996 
 116   0.0000       1.595787        43.4236 
 117   0.0000       1.598219        43.4897 
 118   0.0000       1.652041        44.9543 
 119   0.0000       1.722043        46.8592 
 120   0.0000       1.768923        48.1348 
 121   0.0000       1.769528        48.1513 
 122   0.0000       1.823359        49.6161 
 123   0.0000       1.828896        49.7668 
 124   0.0000       1.843091        50.1531 
 125   0.0000       1.844993        50.2048 
 126   0.0000       1.853443        50.4347 
 127   0.0000       1.873801        50.9887 
 128   0.0000       1.924658        52.3726 
 129   0.0000       1.926161        52.4135 
 130   0.0000       1.944269        52.9062 
 131   0.0000       2.014088        54.8061 
 132   0.0000       2.165847        58.9357 
 133   0.0000       2.166694        58.9587 
 134   0.0000       2.171032        59.0768 
 135   0.0000       2.212321        60.2003 
 136   0.0000       2.214489        60.2593 
 137   0.0000       2.363851        64.3237 
 138   0.0000       2.399128        65.2836 
 139   0.0000       2.400673        65.3256 
 140   0.0000       2.459797        66.9345 
 141   0.0000       2.549884        69.3859 
 142   0.0000       2.551690        69.4350 
 143   0.0000       2.607343        70.9494 
 144   0.0000       2.649877        72.1068 
 145   0.0000       2.650121        72.1134 
 146   0.0000       2.738073        74.5068 
 147   0.0000       2.879396        78.3523 
 148   0.0000       2.881945        78.4217 
 149   0.0000       2.911506        79.2261 
 150   0.0000       2.956734        80.4568 
 151   0.0000       2.958594        80.5074 
 152   0.0000       2.971905        80.8697 
 153   0.0000       3.069988        83.5386 
 154   0.0000       3.074425        83.6594 
 155   0.0000       3.520704        95.8032 
 156   0.0000       3.521688        95.8300 
 157   0.0000       3.566996        97.0629 
 158   0.0000       3.567118        97.0662 
 159   0.0000       3.567198        97.0684 
 160   0.0000       3.567274        97.0704 
 161   0.0000       3.579097        97.3922 
 162   0.0000       3.637335        98.9769 
 163   0.0000       3.638839        99.0178 
 164   0.0000       3.857024       104.9550 

                    ********************************
                    * MULLIKEN POPULATION ANALYSIS *
                    ********************************

-----------------------
MULLIKEN ATOMIC CHARGES
-----------------------
   0 C :    0.026111
   1 C :   -0.449617
   2 C :    0.024880
   3 C :    0.028041
   4 Br:   -0.162110
   5 H :    0.055839
   6 H :    0.053438
   7 H :    0.057377
   8 H :    0.056601
   9 H :    0.056253
  10 H :    0.054369
  11 H :    0.054773
  12 H :    0.057965
  13 H :    0.055011
  14 Br:   -0.968930
Sum of atomic charges:   -1.0000000

--------------------------------
MULLIKEN REDUCED ORBITAL CHARGES
--------------------------------
  0 C s       :     3.011519  s :     3.011519
      pz      :     0.989990  p :     2.935727
      px      :     1.016466
      py      :     0.929272
      dz2     :     0.006299  d :     0.026643
      dxz     :     0.003165
      dyz     :     0.005401
      dx2y2   :     0.007684
      dxy     :     0.004094
  1 C s       :     3.367508  s :     3.367508
      pz      :     0.886541  p :     3.027291
      px      :     1.055010
      py      :     1.085739
      dz2     :     0.011633  d :     0.054819
      dxz     :     0.009537
      dyz     :     0.010139
      dx2y2   :     0.013264
      dxy     :     0.010246
  2 C s       :     3.017780  s :     3.017780
      pz      :     1.019468  p :     2.930651
      px      :     0.889133
      py      :     1.022049
      dz2     :     0.005148  d :     0.026690
      dxz     :     0.005070
      dyz     :     0.004683
      dx2y2   :     0.006963
      dxy     :     0.004825
  3 C s       :     3.011933  s :     3.011933
      pz      :     0.978573  p :     2.933428
      px      :     1.003389
      py      :     0.951466
      dz2     :     0.006359  d :     0.026598
      dxz     :     0.003456
      dyz     :     0.005267
      dx2y2   :     0.008290
      dxy     :     0.003226
  4 Brs       :     7.972941  s :     7.972941
      pz      :     5.308915  p :    17.151032
      px      :     5.873031
      py      :     5.969086
      dz2     :     2.018388  d :    10.038137
      dxz     :     2.010891
      dyz     :     2.006054
      dx2y2   :     2.002058
      dxy     :     2.000745
  5 H s       :     0.920105  s :     0.920105
      pz      :     0.013667  p :     0.024056
      px      :     0.006149
      py      :     0.004240
  6 H s       :     0.922840  s :     0.922840
      pz      :     0.007472  p :     0.023722
      px      :     0.006391
      py      :     0.009859
  7 H s       :     0.918910  s :     0.918910
      pz      :     0.004789  p :     0.023713
      px      :     0.014799
      py      :     0.004125
  8 H s       :     0.919293  s :     0.919293
      pz      :     0.013257  p :     0.024106
      px      :     0.005678
      py      :     0.005171
  9 H s       :     0.919931  s :     0.919931
      pz      :     0.008136  p :     0.023817
      px      :     0.005316
      py      :     0.010365
 10 H s       :     0.921928  s :     0.921928
      pz      :     0.006796  p :     0.023703
      px      :     0.004372
      py      :     0.012535
 11 H s       :     0.921524  s :     0.921524
      pz      :     0.006678  p :     0.023704
      px      :     0.005193
      py      :     0.011833
 12 H s       :     0.918334  s :     0.918334
      pz      :     0.004685  p :     0.023700
      px      :     0.014762
      py      :     0.004254
 13 H s       :     0.920921  s :     0.920921
      pz      :     0.013541  p :     0.024068
      px      :     0.006078
      py      :     0.004449
 14 Brs       :     7.999952  s :     7.999952
      pz      :     5.971931  p :    17.968539
      px      :     5.997943
      py      :     5.998665
      dz2     :     2.000245  d :    10.000439
      dxz     :     2.000116
      dyz     :     2.000065
      dx2y2   :     2.000007
      dxy     :     2.000007


                     *******************************
                     * LOEWDIN POPULATION ANALYSIS *
                     *******************************

----------------------
LOEWDIN ATOMIC CHARGES
----------------------
   0 C :   -0.069808
   1 C :   -0.099258
   2 C :   -0.069619
   3 C :   -0.070110
   4 Br:   -0.038249
   5 H :    0.039290
   6 H :    0.033365
   7 H :    0.033414
   8 H :    0.039093
   9 H :    0.033134
  10 H :    0.033252
  11 H :    0.033273
  12 H :    0.033802
  13 H :    0.038893
  14 Br:   -0.970472

-------------------------------
LOEWDIN REDUCED ORBITAL CHARGES
-------------------------------
  0 C s       :     2.849180  s :     2.849180
      pz      :     1.065155  p :     3.148790
      px      :     1.066201
      py      :     1.017435
      dz2     :     0.016405  d :     0.071838
      dxz     :     0.007989
      dyz     :     0.015502
      dx2y2   :     0.021294
      dxy     :     0.010648
  1 C s       :     2.917516  s :     2.917516
      pz      :     0.920851  p :     3.064451
      px      :     1.059774
      py      :     1.083826
      dz2     :     0.024106  d :     0.117291
      dxz     :     0.018629
      dyz     :     0.022664
      dx2y2   :     0.030989
      dxy     :     0.020903
  2 C s       :     2.849525  s :     2.849525
      pz      :     1.074748  p :     3.148055
      px      :     1.003604
      py      :     1.069703
      dz2     :     0.013902  d :     0.072039
      dxz     :     0.012956
      dyz     :     0.012545
      dx2y2   :     0.020438
      dxy     :     0.012197
  3 C s       :     2.849677  s :     2.849677
      pz      :     1.060443  p :     3.148728
      px      :     1.058833
      py      :     1.029453
      dz2     :     0.016377  d :     0.071704
      dxz     :     0.009022
      dyz     :     0.015283
      dx2y2   :     0.022224
      dxy     :     0.008799
  4 Brs       :     7.848722  s :     7.848722
      pz      :     5.333862  p :    17.134477
      px      :     5.855730
      py      :     5.944885
      dz2     :     2.027285  d :    10.055050
      dxz     :     2.016164
      dyz     :     2.008102
      dx2y2   :     2.002508
      dxy     :     2.000991
  5 H s       :     0.894003  s :     0.894003
      pz      :     0.038290  p :     0.066707
      px      :     0.015960
      py      :     0.012457
  6 H s       :     0.899856  s :     0.899856
      pz      :     0.020017  p :     0.066778
      px      :     0.017076
      py      :     0.029686
  7 H s       :     0.899745  s :     0.899745
      pz      :     0.012600  p :     0.066841
      px      :     0.041631
      py      :     0.012610
  8 H s       :     0.894234  s :     0.894234
      pz      :     0.036526  p :     0.066673
      px      :     0.017445
      py      :     0.012702
  9 H s       :     0.899902  s :     0.899902
      pz      :     0.021389  p :     0.066964
      px      :     0.017050
      py      :     0.028525
 10 H s       :     0.900125  s :     0.900125
      pz      :     0.017549  p :     0.066623
      px      :     0.014109
      py      :     0.034965
 11 H s       :     0.899991  s :     0.899991
      pz      :     0.018021  p :     0.066736
      px      :     0.013753
      py      :     0.034962
 12 H s       :     0.899416  s :     0.899416
      pz      :     0.012609  p :     0.066781
      px      :     0.041836
      py      :     0.012336
 13 H s       :     0.894405  s :     0.894405
      pz      :     0.038168  p :     0.066703
      px      :     0.016051
      py      :     0.012484
 14 Brs       :     7.999958  s :     7.999958
      pz      :     5.973121  p :    17.969920
      px      :     5.998032
      py      :     5.998767
      dz2     :     2.000347  d :    10.000593
      dxz     :     2.000151
      dyz     :     2.000079
      dx2y2   :     2.000008
      dxy     :     2.000008


                      *****************************
                      * MAYER POPULATION ANALYSIS *
                      *****************************

  NA   - Mulliken gross atomic population
  ZA   - Total nuclear charge
  QA   - Mulliken gross atomic charge
  VA   - Mayer's total valence
  BVA  - Mayer's bonded valence
  FA   - Mayer's free valence

  ATOM       NA         ZA         QA         VA         BVA        FA
  0 C      5.9739     6.0000     0.0261     3.8294     3.8294     0.0000
  1 C      6.4496     6.0000    -0.4496     4.1010     4.1010     0.0000
  2 C      5.9751     6.0000     0.0249     3.8283     3.8283     0.0000
  3 C      5.9720     6.0000     0.0280     3.8282     3.8282    -0.0000
  4 Br    35.1621    35.0000    -0.1621     1.0389     1.0389    -0.0000
  5 H      0.9442     1.0000     0.0558     0.9925     0.9925     0.0000
  6 H      0.9466     1.0000     0.0534     0.9976     0.9976     0.0000
  7 H      0.9426     1.0000     0.0574     0.9966     0.9966    -0.0000
  8 H      0.9434     1.0000     0.0566     0.9924     0.9924     0.0000
  9 H      0.9437     1.0000     0.0563     0.9966     0.9966    -0.0000
 10 H      0.9456     1.0000     0.0544     0.9968     0.9968    -0.0000
 11 H      0.9452     1.0000     0.0548     0.9972     0.9972    -0.0000
 12 H      0.9420     1.0000     0.0580     0.9958     0.9958    -0.0000
 13 H      0.9450     1.0000     0.0550     0.9923     0.9923    -0.0000
 14 Br    35.9689    35.0000    -0.9689     0.0660     0.0660     0.0000

  Mayer bond orders larger than 0.100000
B(  0-C ,  1-C ) :   1.0066 B(  0-C ,  5-H ) :   0.9532 B(  0-C ,  6-H ) :   0.9642 
B(  0-C ,  7-H ) :   0.9647 B(  1-C ,  2-C ) :   1.0040 B(  1-C ,  3-C ) :   1.0073 
B(  1-C ,  4-Br) :   0.9560 B(  2-C ,  8-H ) :   0.9548 B(  2-C ,  9-H ) :   0.9657 
B(  2-C , 10-H ) :   0.9659 B(  3-C , 11-H ) :   0.9642 B(  3-C , 12-H ) :   0.9654 
B(  3-C , 13-H ) :   0.9531 


------------------
HIRSHFELD ANALYSIS
------------------

Total integrated alpha density =     51.998821481
Total integrated beta density  =     51.998821481

  ATOM     CHARGE      SPIN    
   0 C   -0.078462    0.000000
   1 C    0.074926    0.000000
   2 C   -0.077704    0.000000
   3 C   -0.078053    0.000000
   4 Br  -0.182808    0.000000
   5 H    0.036757    0.000000
   6 H    0.030580    0.000000
   7 H    0.030894    0.000000
   8 H    0.036597    0.000000
   9 H    0.030704    0.000000
  10 H    0.031067    0.000000
  11 H    0.030203    0.000000
  12 H    0.031338    0.000000
  13 H    0.036629    0.000000
  14 Br  -0.950311    0.000000

  TOTAL  -0.997643    0.000000

-------
TIMINGS
-------

Total SCF time: 0 days 0 hours 0 min 7 sec 

Total time                  ....       7.314 sec
Sum of individual times     ....       7.092 sec  ( 97.0%)

Fock matrix formation       ....       6.296 sec  ( 86.1%)
  Split-RI-J                ....       0.769 sec  ( 12.2% of F)
  Chain of spheres X        ....       3.869 sec  ( 61.5% of F)
  COS-X 1 center corr.      ....       0.000 sec  (  0.0% of F)
  XC integration            ....       0.345 sec  (  5.5% of F)
    Basis function eval.    ....       0.138 sec  ( 40.0% of XC)
    Density eval.           ....       0.065 sec  ( 18.7% of XC)
    XC-Functional eval.     ....       0.030 sec  (  8.7% of XC)
    XC-Potential eval.      ....       0.087 sec  ( 25.2% of XC)
Diagonalization             ....       0.003 sec  (  0.0%)
Density matrix formation    ....       0.003 sec  (  0.0%)
Population analysis         ....       0.049 sec  (  0.7%)
Initial guess               ....       0.012 sec  (  0.2%)
Orbital Transformation      ....       0.000 sec  (  0.0%)
Orbital Orthonormalization  ....       0.007 sec  (  0.1%)
DIIS solution               ....       0.001 sec  (  0.0%)
SOSCF solution              ....       0.008 sec  (  0.1%)
Grid generation             ....       0.720 sec  (  9.8%)


-------------------------------------------------------------------------------
                          DFT DISPERSION CORRECTION                            
                                                                               
                              DFTD3 V3.1  Rev 1                                
                          USING Becke-Johnson damping                          
-------------------------------------------------------------------------------
The PBE0 functional is recognized
Active option DFTDOPT                   ...         4   

molecular C6(AA) [au] = 3451.360901 


            DFT-D V3
 parameters
 s6 scaling factor         :     1.0000 
 a1 scaling factor         :     0.4145 
 s8 scaling factor         :     1.2177 
 a2 scaling factor         :     4.8593 
 ad hoc parameters k1-k3   :    16.0000     1.3333    -4.0000 

 Edisp/kcal,au: -7.575299222626  -0.012072006444 
 E6   /kcal   :  -4.571130980 
 E8   /kcal   :  -3.004168243 
 % E8         :  39.657420183 

-------------------------   ----------------
Dispersion correction           -0.012072006
-------------------------   ----------------


-------------------------   --------------------
FINAL SINGLE POINT ENERGY     -5304.823912722225
-------------------------   --------------------

                                *** OPTIMIZATION RUN DONE ***

                            ***************************************
                            *     ORCA property calculations      *
                            ***************************************

                                    ---------------------
                                    Active property flags
                                    ---------------------
   (+) Dipole Moment


------------------------------------------------------------------------------
                       ORCA ELECTRIC PROPERTIES CALCULATION
------------------------------------------------------------------------------

Dipole Moment Calculation                       ... on
Quadrupole Moment Calculation                   ... off
Polarizability Calculation                      ... off
GBWName                                         ... manual_reactants_333.gbw
Electron density file                           ... manual_reactants_333.scfp
The origin for moment calculation is the CENTER OF MASS  = ( 0.446965, -0.171261  1.445126)

-------------
DIPOLE MOMENT
-------------
                                X             Y             Z
Electronic contribution:     13.63671      -2.95709      39.50785
Nuclear contribution   :    -15.53903       3.61618     -45.53818
                        -----------------------------------------
Total Dipole Moment    :     -1.90232       0.65908      -6.03033
                        -----------------------------------------
Magnitude (a.u.)       :      6.35753
Magnitude (Debye)      :     16.15954



--------------------
Rotational spectrum 
--------------------
 
Rotational constants in cm-1:     0.148884     0.012654     0.012637 
Rotational constants in MHz :  4463.438201   379.362829   378.861706 

 Dipole components along the rotational axes: 
x,y,z [a.u.] :    -6.357161     0.066285    -0.015249 
x,y,z [Debye]:   -16.158620     0.168483    -0.038759 

 
[1631282844.609555] [comp0811:53904:0]            sys.c:618  UCX  ERROR shmget(size=2097152 flags=0xfb0) for mm_recv_desc failed: Operation not permitted, please check shared memory limits by 'ipcs -l'
[1631282844.620727] [comp0811:53902:0]            sys.c:618  UCX  ERROR shmget(size=2097152 flags=0xfb0) for mm_recv_desc failed: Operation not permitted, please check shared memory limits by 'ipcs -l'
[1631282844.633225] [comp0811:53903:0]            sys.c:618  UCX  ERROR shmget(size=2097152 flags=0xfb0) for mm_recv_desc failed: Operation not permitted, please check shared memory limits by 'ipcs -l'
[1631282844.634861] [comp0811:53905:0]            sys.c:618  UCX  ERROR shmget(size=2097152 flags=0xfb0) for mm_recv_desc failed: Operation not permitted, please check shared memory limits by 'ipcs -l'
[1631282844.654943] [comp0811:53902:0]            sys.c:618  UCX  ERROR shmget(size=2097152 flags=0xb80) for ucp_am_bufs failed: Operation not permitted, please check shared memory limits by 'ipcs -l'
[1631282844.663003] [comp0811:53905:0]            sys.c:618  UCX  ERROR shmget(size=2097152 flags=0xb80) for ucp_am_bufs failed: Operation not permitted, please check shared memory limits by 'ipcs -l'
[1631282844.663227] [comp0811:53903:0]            sys.c:618  UCX  ERROR shmget(size=2097152 flags=0xb80) for ucp_am_bufs failed: Operation not permitted, please check shared memory limits by 'ipcs -l'

Timings for individual modules:

Sum of individual times         ...      322.030 sec (=   5.367 min)
GTO integral calculation        ...       23.646 sec (=   0.394 min)   7.3 %
SCF iterations                  ...      217.125 sec (=   3.619 min)  67.4 %
SCF Gradient evaluation         ...       79.113 sec (=   1.319 min)  24.6 %
Geometry relaxation             ...        2.146 sec (=   0.036 min)   0.7 %
                             ****ORCA TERMINATED NORMALLY****
TOTAL RUN TIME: 0 days 0 hours 5 minutes 26 seconds 573 msec
