
                                 *****************
                                 * O   R   C   A *
                                 *****************

           --- An Ab Initio, DFT and Semiempirical electronic structure package ---

                  #######################################################
                  #                        -***-                        #
                  #          Department of theory and spectroscopy      #
                  #               Directorship: Frank Neese             #
                  #        Max Planck Institute fuer Kohlenforschung    #
                  #                Kaiser Wilhelm Platz 1               #
                  #                 D-45470 Muelheim/Ruhr               #
                  #                      Germany                        #
                  #                                                     #
                  #                  All rights reserved                #
                  #                        -***-                        #
                  #######################################################


                         Program Version 4.2.1 -  RELEASE  -


 With contributions from (in alphabetic order):
   Daniel Aravena         : Magnetic Suceptibility
   Michael Atanasov       : Ab Initio Ligand Field Theory (pilot matlab implementation)
   Alexander A. Auer      : GIAO ZORA, VPT2
   Ute Becker             : Parallelization
   Giovanni Bistoni       : ED, misc. LED, open-shell LED, HFLD
   Martin Brehm           : Molecular dynamics
   Dmytro Bykov           : SCF Hessian
   Vijay G. Chilkuri      : MRCI spin determinant printing, contributions to CSF-ICE
   Dipayan Datta          : RHF DLPNO-CCSD density
   Achintya Kumar Dutta   : EOM-CC, STEOM-CC
   Dmitry Ganyushin       : Spin-Orbit,Spin-Spin,Magnetic field MRCI
   Miquel Garcia          : C-PCM Hessian, Gaussian charge scheme
   Yang Guo               : DLPNO-NEVPT2, CIM, IAO-localization
   Andreas Hansen         : Spin unrestricted coupled pair/coupled cluster methods
   Benjamin Helmich-Paris : CASSCF linear response (MC-RPA)
   Lee Huntington         : MR-EOM, pCC
   Robert Izsak           : Overlap fitted RIJCOSX, COSX-SCS-MP3, EOM
   Christian Kollmar      : KDIIS, OOCD, Brueckner-CCSD(T), CCSD density
   Simone Kossmann        : Meta GGA functionals, TD-DFT gradient, OOMP2, MP2 Hessian
   Martin Krupicka        : AUTO-CI
   Lucas Lang             : DCDCAS
   Dagmar Lenk            : GEPOL surface, SMD
   Dimitrios Liakos       : Extrapolation schemes; Compound Job, initial MDCI parallelization
   Dimitrios Manganas     : Further ROCIS development; embedding schemes
   Dimitrios Pantazis     : SARC Basis sets
   Taras Petrenko         : DFT Hessian,TD-DFT gradient, ASA, ECA, R-Raman, ABS, FL, XAS/XES, NRVS
   Peter Pinski           : DLPNO-MP2, DLPNO-MP2 Gradient
   Christoph Reimann      : Effective Core Potentials
   Marius Retegan         : Local ZFS, SOC
   Christoph Riplinger    : Optimizer, TS searches, QM/MM, DLPNO-CCSD(T), (RO)-DLPNO pert. Triples
   Tobias Risthaus        : Range-separated hybrids, TD-DFT gradient, RPA, STAB
   Michael Roemelt        : Original ROCIS implementation
   Masaaki Saitow         : Open-shell DLPNO-CCSD energy and density
   Barbara Sandhoefer     : DKH picture change effects
   Avijit Sen             : IP-ROCIS
   Kantharuban Sivalingam : CASSCF convergence, NEVPT2, FIC-MRCI
   Bernardo de Souza      : ESD, SOC TD-DFT
   Georgi Stoychev        : AutoAux, RI-MP2 NMR
   Willem Van den Heuvel  : Paramagnetic NMR
   Boris Wezisla          : Elementary symmetry handling
   Frank Wennmohs         : Technical directorship


 We gratefully acknowledge several colleagues who have allowed us to
 interface, adapt or use parts of their codes:
   Stefan Grimme, W. Hujo, H. Kruse,             : VdW corrections, initial TS optimization,
                  C. Bannwarth                     DFT functionals, gCP, sTDA/sTD-DF
   Ed Valeev, F. Pavosevic, A. Kumar             : LibInt (2-el integral package), F12 methods
   Garnet Chan, S. Sharma, J. Yang, R. Olivares  : DMRG
   Ulf Ekstrom                                   : XCFun DFT Library
   Mihaly Kallay                                 : mrcc  (arbitrary order and MRCC methods)
   Andreas Klamt, Michael Diedenhofen            : otool_cosmo (COSMO solvation model)
   Jiri Pittner, Ondrej Demel                    : Mk-CCSD
   Frank Weinhold                                : gennbo (NPA and NBO analysis)
   Christopher J. Cramer and Donald G. Truhlar   : smd solvation model
   Lars Goerigk                                  : TD-DFT with DH, B97 family of functionals
   V. Asgeirsson, H. Jonsson                     : NEB implementation
   FAccTs GmbH                                   : IRC, NEB, NEB-TS, Multilevel, MM, QM/MM, CI optimization
   S Lehtola, MJT Oliveira, MAL Marques          : LibXC Library


 Your calculation uses the libint2 library for the computation of 2-el integrals
 For citations please refer to: http://libint.valeyev.net

 Your ORCA version has been built with support for libXC version: 4.2.3
 For citations please refer to: https://tddft.org/programs/libxc/

 This ORCA versions uses:
   CBLAS   interface :  Fast vector & matrix operations
   LAPACKE interface :  Fast linear algebra routines
   SCALAPACK package :  Parallel linear algebra routines


Your calculation utilizes the atom-pairwise dispersion correction
with the Becke-Johnson damping scheme (D3BJ)
Cite in your paper:
S.Grimme, S.Ehrlich, L.Goerigk, J Comput Chem, (2011), 32, 1456–1465 
S.Grimme, J.Antony, S.Ehrlich and H.Krieg, J.Chem.Phys., 132, (2010), 154104 
   

----- Orbital basis set information -----
Your calculation utilizes the basis: def2-SVP
   F. Weigend and R. Ahlrichs, Phys. Chem. Chem. Phys. 7, 3297 (2005).

----- AuxJ basis set information -----
Your calculation utilizes the auxiliary basis: def2/J
   F. Weigend, Phys. Chem. Chem. Phys. 8, 1057 (2006).

================================================================================
                                        WARNINGS
                       Please study these warnings very carefully!
================================================================================


WARNING: Geometry Optimization
  ===> : Switching off AutoStart
         For restart on a previous wavefunction, please use MOREAD

INFO   : the flag for use of LIBINT has been found!

================================================================================
                                       INPUT FILE
================================================================================
NAME = manual_reactants_332.inp
|  1> ! Opt PBE0 RIJCOSX D3BJ def2-SVP def2/J CPCM(Acetone)
|  2> %cpcm
|  3> surfacetype vdw_gaussian
|  4> end
|  5> %geom MaxIter 100 end
|  6> %output 
|  7> xyzfile=True 
|  8> end 
|  9> %scf 
| 10> maxiter 250 
| 11> end
| 12> %output
| 13> Print[P_Hirshfeld] = 1
| 14> end
| 15> % maxcore
| 16> 4000
| 17> %pal nprocs 4
| 18> end
| 19> *xyz -1 1
| 20> C     1.40035  -0.50972  -0.82399
| 21> C     0.12001  -0.24478  -0.07013
| 22> C    -0.67977  -1.48890   0.23343
| 23> Br   -1.00360   1.03534  -1.10493
| 24> H     1.92408   0.42252  -1.07953
| 25> H     1.21397  -1.07795  -1.74831
| 26> H     2.04513  -1.09813  -0.15139
| 27> H     0.33930   0.29424   0.86032
| 28> H    -1.60790  -1.25470   0.77443
| 29> H    -0.05115  -2.11161   0.89102
| 30> H    -0.93269  -2.04436  -0.68285
| 31> Br    1.89382  -1.37812   2.74643
| 32> *
| 33> 
| 34>                          ****END OF INPUT****
================================================================================

                       *****************************
                       * Geometry Optimization Run *
                       *****************************

Geometry optimization settings:
Update method            Update   .... BFGS
Choice of coordinates    CoordSys .... Z-matrix Internals
Initial Hessian          InHess   .... Almoef's Model

Convergence Tolerances:
Energy Change            TolE     ....  5.0000e-06 Eh
Max. Gradient            TolMAXG  ....  3.0000e-04 Eh/bohr
RMS Gradient             TolRMSG  ....  1.0000e-04 Eh/bohr
Max. Displacement        TolMAXD  ....  4.0000e-03 bohr
RMS Displacement         TolRMSD  ....  2.0000e-03 bohr
Strict Convergence                ....  False
------------------------------------------------------------------------------
                        ORCA OPTIMIZATION COORDINATE SETUP
------------------------------------------------------------------------------

The optimization will be done in new redundant internal coordinates
Making redundant internal coordinates   ...  (new redundants) done
Evaluating the initial hessian          ...  (Almloef) done
Evaluating the coordinates              ...  done
Calculating the B-matrix                .... done
Calculating the G-matrix                .... done
Diagonalizing the G-matrix              .... done
The first mode is                       ....   45
The number of degrees of freedom        ....   30

    -----------------------------------------------------------------
                    Redundant Internal Coordinates


    -----------------------------------------------------------------
         Definition                    Initial Value    Approx d2E/dq
    -----------------------------------------------------------------
      1. B(C   1,C   0)                  1.5092         0.403198   
      2. B(C   2,C   1)                  1.5098         0.402285   
      3. B(Br  3,C   1)                  1.9930         0.229191   
      4. B(H   4,C   0)                  1.0994         0.347886   
      5. B(H   5,C   0)                  1.1009         0.345960   
      6. B(H   6,C   0)                  1.1020         0.344597   
      7. B(H   7,C   1)                  1.0974         0.350395   
      8. B(H   8,C   2)                  1.0995         0.347717   
      9. B(H   9,C   2)                  1.1024         0.344024   
     10. B(H  10,C   2)                  1.1009         0.345912   
     11. B(Br 11,H   7)                  2.9615         0.001250   
     12. B(Br 11,H   6)                  2.9152         0.001482   
     13. B(Br 11,C   2)                  3.5987         0.000629   
     14. B(Br 11,H   9)                  2.7863         0.002380   
     15. B(Br 11,C   1)                  3.5162         0.000851   
     16. A(C   1,C   0,H   5)          111.4918         0.326258   
     17. A(C   1,C   0,H   4)          111.8007         0.326556   
     18. A(H   4,C   0,H   5)          108.8546         0.287462   
     19. A(H   5,C   0,H   6)          109.6280         0.287035   
     20. A(C   1,C   0,H   6)          106.5729         0.326046   
     21. A(H   4,C   0,H   6)          108.4156         0.287284   
     22. A(C   2,C   1,Br 11)           80.8268         0.165370   
     23. A(C   0,C   1,C   2)          113.9005         0.372848   
     24. A(Br  3,C   1,Br 11)          155.1400         0.161952   
     25. A(H   7,C   1,Br 11)           51.5651         0.153019   
     26. A(C   0,C   1,H   7)          109.8892         0.326943   
     27. A(Br  3,C   1,H   7)          103.7326         0.316175   
     28. A(C   0,C   1,Br 11)           85.1567         0.165409   
     29. A(C   0,C   1,Br  3)          109.3710         0.360143   
     30. A(C   2,C   1,Br  3)          109.5736         0.360004   
     31. A(C   2,C   1,H   7)          109.8833         0.326820   
     32. A(H   8,C   2,H   9)          107.9477         0.287188   
     33. A(C   1,C   2,H   9)          106.4585         0.325835   
     34. A(H  10,C   2,Br 11)          139.5521         0.148601   
     35. A(H   9,C   2,Br 11)           36.2034         0.148527   
     36. A(H   8,C   2,Br 11)          104.6859         0.148671   
     37. A(C   1,C   2,Br 11)           74.7052         0.160308   
     38. A(H   9,C   2,H  10)          110.0262         0.286955   
     39. A(H   8,C   2,H  10)          108.8473         0.287434   
     40. A(C   1,C   2,H  10)          111.7216         0.326128   
     41. A(C   1,C   2,H   8)          111.7495         0.326408   
     42. A(C   1,Br 11,C   2)           24.4680         0.108195   
     43. D(C   2,C   1,C   0,H   6)    -65.1446         0.013682   
     44. D(Br  3,C   1,C   0,H   4)     53.5872         0.013682   
     45. D(Br 11,C   1,C   0,H   6)     12.5838         0.013682   
     46. D(Br 11,C   1,C   0,H   4)   -105.7120         0.013682   
     47. D(C   2,C   1,C   0,H   4)    176.5596         0.013682   
     48. D(C   2,C   1,C   0,H   5)     54.4485         0.013682   
     49. D(H   7,C   1,C   0,H   5)    178.2230         0.013682   
     50. D(Br  3,C   1,C   0,H   6)    171.8830         0.013682   
     51. D(Br 11,C   1,C   0,H   5)    132.1769         0.013682   
     52. D(Br  3,C   1,C   0,H   5)    -68.5239         0.013682   
     53. D(H   7,C   1,C   0,H   4)    -59.6659         0.013682   
     54. D(H   7,C   1,C   0,H   6)     58.6299         0.013682   
     55. D(H   8,C   2,C   1,H   7)     56.7318         0.014372   
     56. D(H   8,C   2,C   1,Br  3)    -56.6288         0.014372   
     57. D(H   8,C   2,C   1,C   0)   -179.4905         0.014372   
     58. D(Br 11,C   2,C   1,C   0)     80.4965         0.014372   
     59. D(H  10,C   2,C   1,Br 11)   -137.7565         0.014372   
     60. D(H  10,C   2,C   1,Br  3)     65.6017         0.014372   
     61. D(H  10,C   2,C   1,C   0)    -57.2600         0.014372   
     62. D(H   9,C   2,C   1,Br 11)    -17.6197         0.014372   
     63. D(H   9,C   2,C   1,H   7)    -60.9008         0.014372   
     64. D(H  10,C   2,C   1,H   7)    178.9623         0.014372   
     65. D(H   9,C   2,C   1,Br  3)   -174.2615         0.014372   
     66. D(H   9,C   2,C   1,C   0)     62.8769         0.014372   
     67. D(Br 11,C   2,C   1,Br  3)   -156.6418         0.014372   
     68. D(Br 11,C   2,C   1,H   7)    -43.2812         0.014372   
     69. D(H   8,C   2,C   1,Br 11)    100.0130         0.014372   
     70. D(C   1,Br 11,C   2,H   8)   -108.9933         0.001500   
     71. D(C   2,Br 11,C   1,H   7)    124.6084         0.001500   
     72. D(C   2,Br 11,C   1,Br  3)    117.3031         0.001500   
     73. D(C   2,Br 11,C   1,C   0)   -115.1856         0.001500   
     74. D(C   1,Br 11,C   2,H  10)    105.7020         0.001500   
     75. D(C   1,Br 11,C   2,H   9)    150.5622         0.001500   
    -----------------------------------------------------------------

Number of atoms                         .... 12
Number of degrees of freedom            .... 75

         *************************************************************
         *                GEOMETRY OPTIMIZATION CYCLE   1            *
         *************************************************************
---------------------------------
CARTESIAN COORDINATES (ANGSTROEM)
---------------------------------
  C      1.400350   -0.509720   -0.823990
  C      0.120010   -0.244780   -0.070130
  C     -0.679770   -1.488900    0.233430
  Br    -1.003600    1.035340   -1.104930
  H      1.924080    0.422520   -1.079530
  H      1.213970   -1.077950   -1.748310
  H      2.045130   -1.098130   -0.151390
  H      0.339300    0.294240    0.860320
  H     -1.607900   -1.254700    0.774430
  H     -0.051150   -2.111610    0.891020
  H     -0.932690   -2.044360   -0.682850
  Br     1.893820   -1.378120    2.746430

----------------------------
CARTESIAN COORDINATES (A.U.)
----------------------------
  NO LB      ZA    FRAG     MASS         X           Y           Z
   0 C     6.0000    0    12.011    2.646278   -0.963231   -1.557115
   1 C     6.0000    0    12.011    0.226786   -0.462567   -0.132526
   2 C     6.0000    0    12.011   -1.284579   -2.813613    0.441119
   3 Br   35.0000    0    79.900   -1.896529    1.956509   -2.088015
   4 H     1.0000    0     1.008    3.635984    0.798447   -2.040016
   5 H     1.0000    0     1.008    2.294071   -2.037030   -3.303827
   6 H     1.0000    0     1.008    3.864736   -2.075165   -0.286086
   7 H     1.0000    0     1.008    0.641184    0.556033    1.625769
   8 H     1.0000    0     1.008   -3.038491   -2.371039    1.463461
   9 H     1.0000    0     1.008   -0.096659   -3.990365    1.683784
  10 H     1.0000    0     1.008   -1.762529   -3.863281   -1.290399
  11 Br   35.0000    0    79.900    3.578801   -2.604269    5.190001

--------------------------------
INTERNAL COORDINATES (ANGSTROEM)
--------------------------------
 C      0   0   0     0.000000000000     0.00000000     0.00000000
 C      1   0   0     1.509227822034     0.00000000     0.00000000
 C      2   1   0     1.509844792156   113.90051909     0.00000000
 Br     2   1   3     1.992992144114   109.37098078   237.02764000
 H      1   2   3     1.099393115360   111.80073625   176.55957586
 H      1   2   3     1.100904309965   111.49175464    54.44850714
 H      1   2   3     1.101979281339   106.57288276   294.85536695
 H      2   1   3     1.097436953542   109.88920568   123.77450248
 H      3   2   1     1.099525323446   111.74947244   180.50951342
 H      3   2   1     1.102431610849   106.45845177    62.87686274
 H      3   2   1     1.100942040436   111.72156118   302.73998388
 Br    10   3   2     2.786299005688   130.28160398    29.62533657

---------------------------
INTERNAL COORDINATES (A.U.)
---------------------------
 C      0   0   0     0.000000000000     0.00000000     0.00000000
 C      1   0   0     2.852027257338     0.00000000     0.00000000
 C      2   1   0     2.853193161902   113.90051909     0.00000000
 Br     2   1   3     3.766209339432   109.37098078   237.02764000
 H      1   2   3     2.077551901548   111.80073625   176.55957586
 H      1   2   3     2.080407645488   111.49175464    54.44850714
 H      1   2   3     2.082439046986   106.57288276   294.85536695
 H      2   1   3     2.073855291440   109.88920568   123.77450248
 H      3   2   1     2.077801738625   111.74947244   180.50951342
 H      3   2   1     2.083293825883   106.45845177    62.87686274
 H      3   2   1     2.080478945745   111.72156118   302.73998388
 Br    10   3   2     5.265342047968   130.28160398    29.62533657

---------------------
BASIS SET INFORMATION
---------------------
There are 3 groups of distinct atoms

 Group   1 Type C   : 7s4p1d contracted to 3s2p1d pattern {511/31/1}
 Group   2 Type Br  : 14s10p6d contracted to 5s4p3d pattern {63311/5311/411}
 Group   3 Type H   : 4s1p contracted to 2s1p pattern {31/1}

Atom   0C    basis set group =>   1
Atom   1C    basis set group =>   1
Atom   2C    basis set group =>   1
Atom   3Br   basis set group =>   2
Atom   4H    basis set group =>   3
Atom   5H    basis set group =>   3
Atom   6H    basis set group =>   3
Atom   7H    basis set group =>   3
Atom   8H    basis set group =>   3
Atom   9H    basis set group =>   3
Atom  10H    basis set group =>   3
Atom  11Br   basis set group =>   2
---------------------------------
AUXILIARY/J BASIS SET INFORMATION
---------------------------------
There are 3 groups of distinct atoms

 Group   1 Type C   : 12s5p4d2f1g contracted to 6s4p3d1f1g pattern {711111/2111/211/2/1}
 Group   2 Type Br  : 19s5p5d3f1g contracted to 8s4p3d2f1g pattern {121111111/2111/311/21/1}
 Group   3 Type H   : 5s2p1d contracted to 3s1p1d pattern {311/2/1}

Atom   0C    basis set group =>   1
Atom   1C    basis set group =>   1
Atom   2C    basis set group =>   1
Atom   3Br   basis set group =>   2
Atom   4H    basis set group =>   3
Atom   5H    basis set group =>   3
Atom   6H    basis set group =>   3
Atom   7H    basis set group =>   3
Atom   8H    basis set group =>   3
Atom   9H    basis set group =>   3
Atom  10H    basis set group =>   3
Atom  11Br   basis set group =>   2
[1631282519.073235] [comp0811:50611:0]            sys.c:618  UCX  ERROR shmget(size=2097152 flags=0xfb0) for mm_recv_desc failed: Operation not permitted, please check shared memory limits by 'ipcs -l'
[1631282519.083708] [comp0811:50613:0]            sys.c:618  UCX  ERROR shmget(size=2097152 flags=0xfb0) for mm_recv_desc failed: Operation not permitted, please check shared memory limits by 'ipcs -l'
[1631282519.084835] [comp0811:50614:0]            sys.c:618  UCX  ERROR shmget(size=2097152 flags=0xfb0) for mm_recv_desc failed: Operation not permitted, please check shared memory limits by 'ipcs -l'
[1631282519.096783] [comp0811:50612:0]            sys.c:618  UCX  ERROR shmget(size=2097152 flags=0xfb0) for mm_recv_desc failed: Operation not permitted, please check shared memory limits by 'ipcs -l'
[1631282519.124960] [comp0811:50613:0]            sys.c:618  UCX  ERROR shmget(size=2097152 flags=0xb80) for ucp_am_bufs failed: Operation not permitted, please check shared memory limits by 'ipcs -l'
[1631282519.125316] [comp0811:50611:0]            sys.c:618  UCX  ERROR shmget(size=2097152 flags=0xb80) for ucp_am_bufs failed: Operation not permitted, please check shared memory limits by 'ipcs -l'
[1631282519.126170] [comp0811:50612:0]            sys.c:618  UCX  ERROR shmget(size=2097152 flags=0xb80) for ucp_am_bufs failed: Operation not permitted, please check shared memory limits by 'ipcs -l'
[1631282519.126444] [comp0811:50614:0]            sys.c:618  UCX  ERROR shmget(size=2097152 flags=0xb80) for ucp_am_bufs failed: Operation not permitted, please check shared memory limits by 'ipcs -l'


           ************************************************************
           *        Program running with 4 parallel MPI-processes     *
           *              working on a common directory               *
           ************************************************************
------------------------------------------------------------------------------
                           ORCA GTO INTEGRAL CALCULATION
                           -- RI-GTO INTEGRALS CHOSEN --
------------------------------------------------------------------------------

                         BASIS SET STATISTICS AND STARTUP INFO

Gaussian basis set:
 # of primitive gaussian shells          ...  131
 # of primitive gaussian functions       ...  269
 # of contracted shells                  ...   63
 # of contracted basis functions         ...  141
 Highest angular momentum                ...    2
 Maximum contraction depth               ...    6
Auxiliary gaussian basis set:
 # of primitive gaussian shells          ...  194
 # of primitive gaussian functions       ...  500
 # of contracted shells                  ...  116
 # of contracted aux-basis functions     ...  340
 Highest angular momentum                ...    4
 Maximum contraction depth               ...   12
Ratio of auxiliary to basis functions    ...  2.41
Integral package used                  ... LIBINT
 One Electron integrals                  ... done
 Ordering auxiliary basis shells         ... done
 Integral threshhold             Thresh  ...  2.500e-11
 Primitive cut-off               TCut    ...  2.500e-12
 Pre-screening matrix                    ... done
 Shell pair data                         ... 
 Ordering of the shell pairs             ... done (   0.000 sec) 1836 of 2016 pairs
 Determination of significant pairs      ... done (   0.000 sec)
 Creation of shell pair data             ... done (   0.000 sec)
 Storage of shell pair data              ... done (   0.001 sec)
 Shell pair data done in (   0.001 sec)
 Computing two index integrals           ... done
 Cholesky decomposition of the V-matrix  ... done


Timings:
 Total evaluation time                   ...   0.210 sec (  0.004 min)
 One electron matrix time                ...   0.020 sec (  0.000 min) =  9.5%
 Schwartz matrix evaluation time         ...   0.144 sec (  0.002 min) = 68.5%
 Two index repulsion integral time       ...   0.003 sec (  0.000 min) =  1.3%
 Cholesky decomposition of V             ...   0.002 sec (  0.000 min) =  0.9%
 Three index repulsion integral time     ...   0.000 sec (  0.000 min) =  0.0%

[1631282520.309460] [comp0811:50674:0]            sys.c:618  UCX  ERROR shmget(size=2097152 flags=0xfb0) for mm_recv_desc failed: Operation not permitted, please check shared memory limits by 'ipcs -l'
[1631282520.309844] [comp0811:50676:0]            sys.c:618  UCX  ERROR shmget(size=2097152 flags=0xfb0) for mm_recv_desc failed: Operation not permitted, please check shared memory limits by 'ipcs -l'
[1631282520.325336] [comp0811:50678:0]            sys.c:618  UCX  ERROR shmget(size=2097152 flags=0xfb0) for mm_recv_desc failed: Operation not permitted, please check shared memory limits by 'ipcs -l'
[1631282520.331464] [comp0811:50675:0]            sys.c:618  UCX  ERROR shmget(size=2097152 flags=0xfb0) for mm_recv_desc failed: Operation not permitted, please check shared memory limits by 'ipcs -l'
[1631282520.371252] [comp0811:50674:0]            sys.c:618  UCX  ERROR shmget(size=2097152 flags=0xb80) for ucp_am_bufs failed: Operation not permitted, please check shared memory limits by 'ipcs -l'


           ************************************************************
           *        Program running with 4 parallel MPI-processes     *
           *              working on a common directory               *
           ************************************************************
[1631282520.373587] [comp0811:50676:0]            sys.c:618  UCX  ERROR shmget(size=2097152 flags=0xb80) for ucp_am_bufs failed: Operation not permitted, please check shared memory limits by 'ipcs -l'
[1631282520.374124] [comp0811:50675:0]            sys.c:618  UCX  ERROR shmget(size=2097152 flags=0xb80) for ucp_am_bufs failed: Operation not permitted, please check shared memory limits by 'ipcs -l'
[1631282520.375448] [comp0811:50678:0]            sys.c:618  UCX  ERROR shmget(size=2097152 flags=0xb80) for ucp_am_bufs failed: Operation not permitted, please check shared memory limits by 'ipcs -l'
-------------------------------------------------------------------------------
                                 ORCA SCF
-------------------------------------------------------------------------------

------------
SCF SETTINGS
------------
Hamiltonian:
 Density Functional     Method          .... DFT(GTOs)
 Exchange Functional    Exchange        .... PBE
   PBE kappa parameter   XKappa         ....  0.804000
   PBE mue parameter    XMuePBE         ....  0.219520
 Correlation Functional Correlation     .... PBE
   PBE beta parameter  CBetaPBE         ....  0.066725
 LDA part of GGA corr.  LDAOpt          .... PW91-LDA
 Gradients option       PostSCFGGA      .... off
 Hybrid DFT is turned on
   Fraction HF Exchange ScalHFX         ....  0.250000
   Scaling of DF-GGA-X  ScalDFX         ....  0.750000
   Scaling of DF-GGA-C  ScalDFC         ....  1.000000
   Scaling of DF-LDA-C  ScalLDAC        ....  1.000000
   Perturbative correction              ....  0.000000
   Density functional embedding theory  .... OFF
   NL short-range parameter             ....  6.900000
 RI-approximation to the Coulomb term is turned on
   Number of auxiliary basis functions  .... 340
   RIJ-COSX (HFX calculated with COS-X)).... on


General Settings:
 Integral files         IntName         .... manual_reactants_332
 Hartree-Fock type      HFTyp           .... RHF
 Total Charge           Charge          ....   -1
 Multiplicity           Mult            ....    1
 Number of Electrons    NEL             ....   96
 Basis Dimension        Dim             ....  141
 Nuclear Repulsion      ENuc            ....    499.1039761332 Eh

Convergence Acceleration:
 DIIS                   CNVDIIS         .... on
   Start iteration      DIISMaxIt       ....    12
   Startup error        DIISStart       ....  0.200000
   # of expansion vecs  DIISMaxEq       ....     5
   Bias factor          DIISBfac        ....   1.050
   Max. coefficient     DIISMaxC        ....  10.000
 Newton-Raphson         CNVNR           .... off
 SOSCF                  CNVSOSCF        .... on
   Start iteration      SOSCFMaxIt      ....   150
   Startup grad/error   SOSCFStart      ....  0.003300
 Level Shifting         CNVShift        .... on
   Level shift para.    LevelShift      ....    0.2500
   Turn off err/grad.   ShiftErr        ....    0.0010
 Zerner damping         CNVZerner       .... off
 Static damping         CNVDamp         .... on
   Fraction old density DampFac         ....    0.7000
   Max. Damping (<1)    DampMax         ....    0.9800
   Min. Damping (>=0)   DampMin         ....    0.0000
   Turn off err/grad.   DampErr         ....    0.1000
 Fernandez-Rico         CNVRico         .... off

SCF Procedure:
 Maximum # iterations   MaxIter         ....   250
 SCF integral mode      SCFMode         .... Direct
   Integral package                     .... LIBINT
 Reset frequency        DirectResetFreq ....    20
 Integral Threshold     Thresh          ....  2.500e-11 Eh
 Primitive CutOff       TCut            ....  2.500e-12 Eh

Convergence Tolerance:
 Convergence Check Mode ConvCheckMode   .... Total+1el-Energy
 Convergence forced     ConvForced      .... 0
 Energy Change          TolE            ....  1.000e-08 Eh
 1-El. energy change                    ....  1.000e-05 Eh
 Orbital Gradient       TolG            ....  1.000e-05
 Orbital Rotation angle TolX            ....  1.000e-05
 DIIS Error             TolErr          ....  5.000e-07


Diagonalization of the overlap matrix:
Smallest eigenvalue                        ... 2.550e-03
Time for diagonalization                   ...    0.004 sec
Threshold for overlap eigenvalues          ... 1.000e-08
Number of eigenvalues below threshold      ... 0
Time for construction of square roots      ...    0.002 sec
Total time needed                          ...    0.006 sec

-------------------
DFT GRID GENERATION
-------------------

General Integration Accuracy     IntAcc      ...  4.340
Radial Grid Type                 RadialGrid  ... Gauss-Chebyshev
Angular Grid (max. acc.)         AngularGrid ... Lebedev-110
Angular grid pruning method      GridPruning ... 3 (G Style)
Weight generation scheme         WeightScheme... Becke
Basis function cutoff            BFCut       ...    1.0000e-11
Integration weight cutoff        WCut        ...    1.0000e-14
Grids for H and He will be reduced by one unit

# of grid points (after initial pruning)     ...  16306 (   0.0 sec)
# of grid points (after weights+screening)   ...  15490 (   0.0 sec)
nearest neighbour list constructed           ...    0.0 sec
Grid point re-assignment to atoms done       ...    0.0 sec
Grid point division into batches done        ...    0.0 sec
Reduced shell lists constructed in    0.0 sec

Total number of grid points                  ...    15490
Total number of batches                      ...      247
Average number of points per batch           ...       62
Average number of grid points per atom       ...     1291
Average number of shells per batch           ...    45.38 (72.03%)
Average number of basis functions per batch  ...    98.05 (69.54%)
Average number of large shells per batch     ...    38.16 (84.09%)
Average number of large basis fcns per batch ...    80.54 (82.14%)
Maximum spatial batch extension              ...  15.75, 15.28, 22.78 au
Average spatial batch extension              ...   0.70,  0.71,  0.77 au

Time for grid setup =    0.094 sec

------------------------------
INITIAL GUESS: MODEL POTENTIAL
------------------------------
Loading Hartree-Fock densities                     ... done
Calculating cut-offs                               ... done
Setting up the integral package                    ... done
Initializing the effective Hamiltonian             ... done
Starting the Coulomb interaction                   ... done (   0.0 sec)
Reading the grid                                   ... done
Mapping shells                                     ... done
Starting the XC term evaluation                    ... done (   0.0 sec)
  promolecular density results
     # of electrons  =     95.001375063
     EX              =   -195.917222178
     EC              =     -4.226169954
     EX+EC           =   -200.143392132
Transforming the Hamiltonian                       ... done (   0.0 sec)
Diagonalizing the Hamiltonian                      ... done (   0.0 sec)
Back transforming the eigenvectors                 ... done (   0.0 sec)
Now organizing SCF variables                       ... done
                      ------------------
                      INITIAL GUESS DONE (   0.2 sec)
                      ------------------
--------------------
COSX GRID GENERATION
--------------------

General Integration Accuracy     IntAcc      ...  3.340
Radial Grid Type                 RadialGrid  ... Gauss-Chebyshev
Angular Grid (max. acc.)         AngularGrid ... Lebedev-50
Angular grid pruning method      GridPruning ... 3 (G Style)
Weight generation scheme         WeightScheme... Becke
Basis function cutoff            BFCut       ...    1.0000e-11
Integration weight cutoff        WCut        ...    1.0000e-14
Grids for H and He will be reduced by one unit

# of grid points (after initial pruning)     ...   6064 (   0.0 sec)
# of grid points (after weights+screening)   ...   5740 (   0.0 sec)
nearest neighbour list constructed           ...    0.0 sec
Grid point re-assignment to atoms done       ...    0.0 sec
Grid point division into batches done        ...    0.0 sec
Reduced shell lists constructed in    0.0 sec

Total number of grid points                  ...     5740
Total number of batches                      ...       96
Average number of points per batch           ...       59
Average number of grid points per atom       ...      478
Average number of shells per batch           ...    46.88 (74.41%)
Average number of basis functions per batch  ...   101.92 (72.28%)
Average number of large shells per batch     ...    40.32 (86.01%)
Average number of large basis fcns per batch ...    84.88 (83.28%)
Maximum spatial batch extension              ...  13.37, 14.83, 19.83 au
Average spatial batch extension              ...   0.94,  0.95,  1.08 au

Overlap Fitting                  UseSFitting ... on
Constructing numerical overlap ... done (      0.0 sec)
Inverting numerical overlap    ... done (      0.0 sec)
Obtaining analytic overlap     ... done (      0.0 sec)
Final contraction and storage  ... done (      0.0 sec)


General Integration Accuracy     IntAcc      ...  3.670
Radial Grid Type                 RadialGrid  ... Gauss-Chebyshev
Angular Grid (max. acc.)         AngularGrid ... Lebedev-50
Angular grid pruning method      GridPruning ... 3 (G Style)
Weight generation scheme         WeightScheme... Becke
Basis function cutoff            BFCut       ...    1.0000e-11
Integration weight cutoff        WCut        ...    1.0000e-14
Grids for H and He will be reduced by one unit

# of grid points (after initial pruning)     ...   7582 (   0.0 sec)
# of grid points (after weights+screening)   ...   7166 (   0.0 sec)
nearest neighbour list constructed           ...    0.0 sec
Grid point re-assignment to atoms done       ...    0.0 sec
Grid point division into batches done        ...    0.0 sec
Reduced shell lists constructed in    0.0 sec

Total number of grid points                  ...     7166
Total number of batches                      ...      117
Average number of points per batch           ...       61
Average number of grid points per atom       ...      597
Average number of shells per batch           ...    47.06 (74.71%)
Average number of basis functions per batch  ...   102.42 (72.64%)
Average number of large shells per batch     ...    40.29 (85.61%)
Average number of large basis fcns per batch ...    84.74 (82.74%)
Maximum spatial batch extension              ...  15.02, 15.55, 16.62 au
Average spatial batch extension              ...   0.89,  0.91,  0.94 au

Overlap Fitting                  UseSFitting ... on
Constructing numerical overlap ... done (      0.0 sec)
Inverting numerical overlap    ... done (      0.0 sec)
Obtaining analytic overlap     ... done (      0.0 sec)
Final contraction and storage  ... done (      0.0 sec)


General Integration Accuracy     IntAcc      ...  4.010
Radial Grid Type                 RadialGrid  ... Gauss-Chebyshev
Angular Grid (max. acc.)         AngularGrid ... Lebedev-110
Angular grid pruning method      GridPruning ... 3 (G Style)
Weight generation scheme         WeightScheme... Becke
Basis function cutoff            BFCut       ...    1.0000e-11
Integration weight cutoff        WCut        ...    1.0000e-14
Grids for H and He will be reduced by one unit

# of grid points (after initial pruning)     ...  14244 (   0.0 sec)
# of grid points (after weights+screening)   ...  13550 (   0.0 sec)
nearest neighbour list constructed           ...    0.0 sec
Grid point re-assignment to atoms done       ...    0.0 sec
Grid point division into batches done        ...    0.0 sec
Reduced shell lists constructed in    0.0 sec

Total number of grid points                  ...    13550
Total number of batches                      ...      218
Average number of points per batch           ...       62
Average number of grid points per atom       ...     1129
Average number of shells per batch           ...    45.84 (72.76%)
Average number of basis functions per batch  ...    99.23 (70.38%)
Average number of large shells per batch     ...    38.57 (84.14%)
Average number of large basis fcns per batch ...    81.39 (82.02%)
Maximum spatial batch extension              ...  15.44, 14.21, 16.68 au
Average spatial batch extension              ...   0.74,  0.75,  0.80 au

Overlap Fitting                  UseSFitting ... on
Constructing numerical overlap ... done (      0.0 sec)
Inverting numerical overlap    ... done (      0.0 sec)
Obtaining analytic overlap     ... done (      0.0 sec)
Final contraction and storage  ... done (      0.0 sec)

Time for X-Grid setup             =    0.171 sec

--------------------
CPCM SOLVATION MODEL
--------------------
CPCM parameters:
  Epsilon                                         ...      20.7000
  Refrac                                          ...       1.3590
  Rsolv                                           ...       1.3000
  Surface type                                    ... GAUSSIAN VDW
  Epsilon function type                           ...         CPCM
Radii:
 Radius for C  used is    3.8550 Bohr (=   2.0400 Ang.)
 Radius for Br used is    4.1952 Bohr (=   2.2200 Ang.)
 Radius for H  used is    2.4944 Bohr (=   1.3200 Ang.)
Calculating surface                               ...        done! (  0.0s)
GEPOL surface points                              ...          733
GEPOL Volume                                      ...    1027.4348
GEPOL Surface-area                                ...     602.2884
Calculating surface distance matrix               ...        done! (  0.0s)
Performing Cholesky decomposition & store         ...        done! (  0.0s)
Overall time for CPCM initialization              ...                 0.0s
--------------
SCF ITERATIONS
--------------
ITER       Energy         Delta-E        Max-DP      RMS-DP      [F,P]     Damp
               ***  Starting incremental Fock matrix formation  ***
  0  -5265.4298909969   0.000000000000 0.10922332  0.00226261  0.1576824 0.7000
  1  -5265.4927960391  -0.062905042146 0.08272235  0.00171932  0.0836526 0.7000
                               ***Turning on DIIS***
  2  -5265.5213394103  -0.028543371190 0.16241760  0.00333729  0.0407516 0.0000
  3  -5265.5631050710  -0.041765660779 0.03656134  0.00099292  0.0446815 0.0000
  4  -5265.5729205884  -0.009815517359 0.01890312  0.00033811  0.0085157 0.0000
                      *** Initiating the SOSCF procedure ***
                           *** Shutting down DIIS ***
                      *** Re-Reading the Fockian *** 
                      *** Removing any level shift *** 
ITER      Energy       Delta-E        Grad      Rot      Max-DP    RMS-DP
  5  -5265.57335797  -0.0004373782  0.000665  0.000665  0.002401  0.000089
               *** Restarting incremental Fock matrix formation ***
  6  -5265.57338222  -0.0000242539  0.000352  0.000657  0.001189  0.000053
  7  -5265.57338324  -0.0000010239  0.000239  0.000176  0.000693  0.000015
  8  -5265.57338507  -0.0000018303  0.000024  0.000016  0.000113  0.000002
  9  -5265.57338504   0.0000000382  0.000021  0.000018  0.000043  0.000001
 10  -5265.57338508  -0.0000000420  0.000003  0.000006  0.000014  0.000000
 11  -5265.57338510  -0.0000000191  0.000003  0.000002  0.000009  0.000000
                  ***Gradient check signals convergence***
              ***Rediagonalizing the Fockian in SOSCF/NRSCF***

               *****************************************************
               *                     SUCCESS                       *
               *           SCF CONVERGED AFTER  12 CYCLES          *
               *****************************************************

Setting up the final grid:

General Integration Accuracy     IntAcc      ...  4.670
Radial Grid Type                 RadialGrid  ... Gauss-Chebyshev
Angular Grid (max. acc.)         AngularGrid ... Lebedev-302
Angular grid pruning method      GridPruning ... 3 (G Style)
Weight generation scheme         WeightScheme... Becke
Basis function cutoff            BFCut       ...    1.0000e-11
Integration weight cutoff        WCut        ...    1.0000e-14
Grids for H and He will be reduced by one unit

# of grid points (after initial pruning)     ...  61626 (   0.0 sec)
# of grid points (after weights+screening)   ...  57884 (   0.0 sec)
nearest neighbour list constructed           ...    0.0 sec
Grid point re-assignment to atoms done       ...    0.0 sec
Grid point division into batches done        ...    0.2 sec
Reduced shell lists constructed in    0.3 sec

Total number of grid points                  ...    57884
Total number of batches                      ...      910
Average number of points per batch           ...       63
Average number of grid points per atom       ...     4824
Average number of shells per batch           ...    43.37 (68.84%)
Average number of basis functions per batch  ...    93.14 (66.05%)
Average number of large shells per batch     ...    35.94 (82.87%)
Average number of large basis fcns per batch ...    75.16 (80.70%)
Maximum spatial batch extension              ...  15.25, 13.54, 15.15 au
Average spatial batch extension              ...   0.52,  0.49,  0.52 au

Final grid set up in    0.4 sec
Final integration                            ... done (   0.1 sec)
Change in XC energy                          ...     0.000465059
Integrated number of electrons               ...    95.999986307
Previous integrated no of electrons          ...    96.004322018
Old exchange energy                            =    -49.362605223 Eh
New exchange energy                            =    -49.362822391 Eh
Exchange energy change after final integration =     -0.000217168 Eh
Total energy after final integration           =  -5265.573137173 Eh
Final COS-X integration done in                =     0.851 sec

----------------
TOTAL SCF ENERGY
----------------

Total Energy       :        -5265.57313717 Eh         -143283.52946 eV

Components:
Nuclear Repulsion  :          499.10397613 Eh           13581.30965 eV
Electronic Energy  :        -5764.67711331 Eh         -156864.83911 eV
One Electron Energy:        -8337.49333017 Eh         -226874.72760 eV
Two Electron Energy:         2572.81621686 Eh           70009.88849 eV
CPCM Dielectric    :           -0.09290578 Eh              -2.52809 eV

Virial components:
Potential Energy   :       -10524.64403324 Eh         -286390.12394 eV
Kinetic Energy     :         5259.07089606 Eh          143106.59448 eV
Virial Ratio       :            2.00123639


DFT components:
N(Alpha)           :       47.999993153480 electrons
N(Beta)            :       47.999993153480 electrons
N(Total)           :       95.999986306959 electrons
E(X)               :     -147.445953995271 Eh       
E(C)               :       -4.275787705281 Eh       
E(XC)              :     -151.721741700553 Eh       
DFET-embed. en.    :        0.000000000000 Eh       
CPCM Solvation Model Properties:
Surface-charge          :            0.97875447
Charge-correction       :           -0.00299042 Eh              -0.08137 eV
Free-energy (cav+disp)  :            0.00392311 Eh               0.10675 eV
Corrected G(solv)       :        -5265.57220448 Eh         -143283.50408 eV

---------------
SCF CONVERGENCE
---------------

  Last Energy change         ...    3.3355e-08  Tolerance :   1.0000e-08
  Last MAX-Density change    ...    4.8850e-15  Tolerance :   1.0000e-07
  Last RMS-Density change    ...    1.1039e-16  Tolerance :   5.0000e-09
  Last Orbital Gradient      ...    6.7058e-07  Tolerance :   1.0000e-05
  Last Orbital Rotation      ...    4.0386e-07  Tolerance :   1.0000e-05

             **** THE GBW FILE WAS UPDATED (manual_reactants_332.gbw) ****
             **** DENSITY FILE WAS UPDATED (manual_reactants_332.scfp) ****
             **** ENERGY FILE WAS UPDATED (manual_reactants_332.en.tmp) ****
             **** THE GBW FILE WAS UPDATED (manual_reactants_332.gbw) ****
             **** DENSITY FILE WAS UPDATED (manual_reactants_332.scfp) ****
----------------
ORBITAL ENERGIES
----------------

  NO   OCC          E(Eh)            E(eV) 
   0   2.0000    -483.164618    -13147.5777 
   1   2.0000    -483.064810    -13144.8618 
   2   2.0000     -62.600888     -1703.4568 
   3   2.0000     -62.499878     -1700.7081 
   4   2.0000     -56.389966     -1534.4490 
   5   2.0000     -56.387875     -1534.3921 
   6   2.0000     -56.387743     -1534.3885 
   7   2.0000     -56.287822     -1531.6695 
   8   2.0000     -56.287787     -1531.6685 
   9   2.0000     -56.287496     -1531.6606 
  10   2.0000     -10.277440      -279.6634 
  11   2.0000     -10.217622      -278.0356 
  12   2.0000     -10.215882      -277.9883 
  13   2.0000      -8.746095      -237.9934 
  14   2.0000      -8.643378      -235.1983 
  15   2.0000      -6.559795      -178.5011 
  16   2.0000      -6.548550      -178.1951 
  17   2.0000      -6.548512      -178.1941 
  18   2.0000      -6.449771      -175.5072 
  19   2.0000      -6.449661      -175.5042 
  20   2.0000      -6.449611      -175.5028 
  21   2.0000      -2.645503       -71.9878 
  22   2.0000      -2.642332       -71.9015 
  23   2.0000      -2.642249       -71.8993 
  24   2.0000      -2.633182       -71.6525 
  25   2.0000      -2.633170       -71.6522 
  26   2.0000      -2.536655       -69.0259 
  27   2.0000      -2.536627       -69.0251 
  28   2.0000      -2.536550       -69.0230 
  29   2.0000      -2.536491       -69.0214 
  30   2.0000      -2.536467       -69.0208 
  31   2.0000      -0.833938       -22.6926 
  32   2.0000      -0.739141       -20.1130 
  33   2.0000      -0.693109       -18.8605 
  34   2.0000      -0.652941       -17.7674 
  35   2.0000      -0.572838       -15.5877 
  36   2.0000      -0.468072       -12.7369 
  37   2.0000      -0.446879       -12.1602 
  38   2.0000      -0.417507       -11.3610 
  39   2.0000      -0.389487       -10.5985 
  40   2.0000      -0.356365        -9.6972 
  41   2.0000      -0.355537        -9.6747 
  42   2.0000      -0.331796        -9.0286 
  43   2.0000      -0.278291        -7.5727 
  44   2.0000      -0.277985        -7.5644 
  45   2.0000      -0.215290        -5.8583 
  46   2.0000      -0.214778        -5.8444 
  47   2.0000      -0.211641        -5.7590 
  48   0.0000       0.021866         0.5950 
  49   0.0000       0.099523         2.7082 
  50   0.0000       0.127180         3.4608 
  51   0.0000       0.133484         3.6323 
  52   0.0000       0.157513         4.2862 
  53   0.0000       0.172872         4.7041 
  54   0.0000       0.179271         4.8782 
  55   0.0000       0.189130         5.1465 
  56   0.0000       0.217919         5.9299 
  57   0.0000       0.249669         6.7938 
  58   0.0000       0.334932         9.1140 
  59   0.0000       0.395226        10.7546 
  60   0.0000       0.410871        11.1804 
  61   0.0000       0.423543        11.5252 
  62   0.0000       0.433755        11.8031 
  63   0.0000       0.439844        11.9688 
  64   0.0000       0.505998        13.7689 
  65   0.0000       0.540768        14.7151 
  66   0.0000       0.550606        14.9828 
  67   0.0000       0.562532        15.3073 
  68   0.0000       0.585125        15.9221 
  69   0.0000       0.606095        16.4927 
  70   0.0000       0.621826        16.9207 
  71   0.0000       0.625106        17.0100 
  72   0.0000       0.628039        17.0898 
  73   0.0000       0.633023        17.2254 
  74   0.0000       0.639447        17.4002 
  75   0.0000       0.656805        17.8726 
  76   0.0000       0.662305        18.0222 
  77   0.0000       0.684999        18.6398 
  78   0.0000       0.690646        18.7934 
  79   0.0000       0.693563        18.8728 
  80   0.0000       0.697971        18.9928 
  81   0.0000       0.703849        19.1527 
  82   0.0000       0.709447        19.3050 
  83   0.0000       0.726021        19.7560 
  84   0.0000       0.729942        19.8627 
  85   0.0000       0.737606        20.0713 
  86   0.0000       0.776753        21.1365 
  87   0.0000       0.801050        21.7977 
  88   0.0000       0.816875        22.2283 
  89   0.0000       0.836671        22.7670 
  90   0.0000       0.863065        23.4852 
  91   0.0000       0.933365        25.3982 
  92   0.0000       1.047168        28.4949 
  93   0.0000       1.065391        28.9908 
  94   0.0000       1.115290        30.3486 
  95   0.0000       1.171697        31.8835 
  96   0.0000       1.232223        33.5305 
  97   0.0000       1.316725        35.8299 
  98   0.0000       1.520737        41.3814 
  99   0.0000       1.552153        42.2362 
 100   0.0000       1.557225        42.3743 
 101   0.0000       1.562220        42.5102 
 102   0.0000       1.633678        44.4546 
 103   0.0000       1.761236        47.9257 
 104   0.0000       1.776226        48.3336 
 105   0.0000       1.795779        48.8656 
 106   0.0000       1.817160        49.4474 
 107   0.0000       1.832410        49.8624 
 108   0.0000       1.854741        50.4701 
 109   0.0000       1.876280        51.0562 
 110   0.0000       1.893358        51.5209 
 111   0.0000       1.950409        53.0733 
 112   0.0000       1.972988        53.6877 
 113   0.0000       2.047997        55.7288 
 114   0.0000       2.164560        58.9007 
 115   0.0000       2.170512        59.0626 
 116   0.0000       2.269227        61.7488 
 117   0.0000       2.273919        61.8765 
 118   0.0000       2.395088        65.1737 
 119   0.0000       2.407266        65.5050 
 120   0.0000       2.510049        68.3019 
 121   0.0000       2.592109        70.5349 
 122   0.0000       2.604388        70.8690 
 123   0.0000       2.616100        71.1877 
 124   0.0000       2.759985        75.1030 
 125   0.0000       2.877895        78.3115 
 126   0.0000       2.931533        79.7711 
 127   0.0000       2.934331        79.8472 
 128   0.0000       3.006069        81.7993 
 129   0.0000       3.024759        82.3079 
 130   0.0000       3.069445        83.5238 
 131   0.0000       3.494464        95.0892 
 132   0.0000       3.508790        95.4790 
 133   0.0000       3.562155        96.9312 
 134   0.0000       3.563924        96.9793 
 135   0.0000       3.586487        97.5933 
 136   0.0000       3.594813        97.8198 
 137   0.0000       3.598706        97.9258 
 138   0.0000       3.607430        98.1632 
 139   0.0000       3.621875        98.5562 
 140   0.0000       3.842786       104.5675 

                    ********************************
                    * MULLIKEN POPULATION ANALYSIS *
                    ********************************

-----------------------
MULLIKEN ATOMIC CHARGES
-----------------------
   0 C :   -0.027043
   1 C :   -0.212853
   2 C :   -0.023325
   3 Br:   -0.218417
   4 H :    0.052980
   5 H :    0.048653
   6 H :    0.046544
   7 H :    0.080575
   8 H :    0.050542
   9 H :    0.046834
  10 H :    0.046600
  11 Br:   -0.891089
Sum of atomic charges:   -1.0000000

--------------------------------
MULLIKEN REDUCED ORBITAL CHARGES
--------------------------------
  0 C s       :     3.021690  s :     3.021690
      pz      :     1.011156  p :     2.978508
      px      :     0.941334
      py      :     1.026018
      dz2     :     0.004158  d :     0.026845
      dxz     :     0.006225
      dyz     :     0.006374
      dx2y2   :     0.004005
      dxy     :     0.006083
  1 C s       :     3.227812  s :     3.227812
      pz      :     1.010480  p :     2.938576
      px      :     0.967171
      py      :     0.960925
      dz2     :     0.006959  d :     0.046465
      dxz     :     0.009034
      dyz     :     0.010383
      dx2y2   :     0.008692
      dxy     :     0.011397
  2 C s       :     3.019921  s :     3.019921
      pz      :     1.013775  p :     2.976649
      px      :     1.007367
      py      :     0.955506
      dz2     :     0.003066  d :     0.026755
      dxz     :     0.006190
      dyz     :     0.006816
      dx2y2   :     0.004409
      dxy     :     0.006274
  3 Brs       :     7.967909  s :     7.967909
      pz      :     5.782038  p :    17.213583
      px      :     5.748429
      py      :     5.683115
      dz2     :     2.004987  d :    10.036925
      dxz     :     2.008283
      dyz     :     2.008737
      dx2y2   :     2.005098
      dxy     :     2.009820
  4 H s       :     0.923299  s :     0.923299
      pz      :     0.005391  p :     0.023722
      px      :     0.006337
      py      :     0.011994
  5 H s       :     0.927820  s :     0.927820
      pz      :     0.011798  p :     0.023527
      px      :     0.004236
      py      :     0.007494
  6 H s       :     0.928068  s :     0.928068
      pz      :     0.009775  p :     0.025388
      px      :     0.007804
      py      :     0.007809
  7 H s       :     0.897301  s :     0.897301
      pz      :     0.012699  p :     0.022125
      px      :     0.003881
      py      :     0.005544
  8 H s       :     0.925746  s :     0.925746
      pz      :     0.007293  p :     0.023712
      px      :     0.011868
      py      :     0.004551
  9 H s       :     0.927344  s :     0.927344
      pz      :     0.009544  p :     0.025822
      px      :     0.008927
      py      :     0.007352
 10 H s       :     0.929872  s :     0.929872
      pz      :     0.011638  p :     0.023529
      px      :     0.005266
      py      :     0.006625
 11 Brs       :     7.995418  s :     7.995418
      pz      :     5.949418  p :    17.894562
      px      :     5.971176
      py      :     5.973969
      dz2     :     2.000306  d :    10.001109
      dxz     :     2.000398
      dyz     :     2.000182
      dx2y2   :     2.000084
      dxy     :     2.000139


                     *******************************
                     * LOEWDIN POPULATION ANALYSIS *
                     *******************************

----------------------
LOEWDIN ATOMIC CHARGES
----------------------
   0 C :   -0.084719
   1 C :   -0.070126
   2 C :   -0.086287
   3 Br:   -0.068548
   4 H :    0.031436
   5 H :    0.029957
   6 H :    0.027358
   7 H :    0.022790
   8 H :    0.030992
   9 H :    0.024401
  10 H :    0.028585
  11 Br:   -0.885838

-------------------------------
LOEWDIN REDUCED ORBITAL CHARGES
-------------------------------
  0 C s       :     2.848792  s :     2.848792
      pz      :     1.058814  p :     3.164641
      px      :     1.030716
      py      :     1.075111
      dz2     :     0.010358  d :     0.071286
      dxz     :     0.017226
      dyz     :     0.016493
      dx2y2   :     0.011235
      dxy     :     0.015974
  1 C s       :     2.913288  s :     2.913288
      pz      :     1.034649  p :     3.054407
      px      :     1.010072
      py      :     1.009686
      dz2     :     0.015444  d :     0.102431
      dxz     :     0.020583
      dyz     :     0.022428
      dx2y2   :     0.018512
      dxy     :     0.025463
  2 C s       :     2.849239  s :     2.849239
      pz      :     1.071025  p :     3.165911
      px      :     1.055440
      py      :     1.039446
      dz2     :     0.008248  d :     0.071137
      dxz     :     0.016205
      dyz     :     0.017694
      dx2y2   :     0.011576
      dxy     :     0.017414
  3 Brs       :     7.837698  s :     7.837698
      pz      :     5.773215  p :    17.182129
      px      :     5.734576
      py      :     5.674338
      dz2     :     2.006312  d :    10.048721
      dxz     :     2.010681
      dyz     :     2.011580
      dx2y2   :     2.006591
      dxy     :     2.013558
  4 H s       :     0.901875  s :     0.901875
      pz      :     0.014090  p :     0.066689
      px      :     0.019293
      py      :     0.033306
  5 H s       :     0.903413  s :     0.903413
      pz      :     0.033027  p :     0.066630
      px      :     0.013009
      py      :     0.020595
  6 H s       :     0.901284  s :     0.901284
      pz      :     0.026782  p :     0.071359
      px      :     0.023224
      py      :     0.021352
  7 H s       :     0.902823  s :     0.902823
      pz      :     0.040588  p :     0.074388
      px      :     0.014905
      py      :     0.018895
  8 H s       :     0.902383  s :     0.902383
      pz      :     0.019801  p :     0.066625
      px      :     0.033129
      py      :     0.013695
  9 H s       :     0.902493  s :     0.902493
      pz      :     0.026220  p :     0.073106
      px      :     0.024822
      py      :     0.022064
 10 H s       :     0.904712  s :     0.904712
      pz      :     0.032388  p :     0.066702
      px      :     0.014037
      py      :     0.020278
 11 Brs       :     7.991101  s :     7.991101
      pz      :     5.946187  p :    17.893571
      px      :     5.969719
      py      :     5.977665
      dz2     :     2.000322  d :    10.001166
      dxz     :     2.000384
      dyz     :     2.000203
      dx2y2   :     2.000084
      dxy     :     2.000172


                      *****************************
                      * MAYER POPULATION ANALYSIS *
                      *****************************

  NA   - Mulliken gross atomic population
  ZA   - Total nuclear charge
  QA   - Mulliken gross atomic charge
  VA   - Mayer's total valence
  BVA  - Mayer's bonded valence
  FA   - Mayer's free valence

  ATOM       NA         ZA         QA         VA         BVA        FA
  0 C      6.0270     6.0000    -0.0270     3.8771     3.8771     0.0000
  1 C      6.2129     6.0000    -0.2129     4.0169     4.0169    -0.0000
  2 C      6.0233     6.0000    -0.0233     3.8681     3.8681    -0.0000
  3 Br    35.2184    35.0000    -0.2184     0.9908     0.9908    -0.0000
  4 H      0.9470     1.0000     0.0530     0.9917     0.9917     0.0000
  5 H      0.9513     1.0000     0.0487     0.9947     0.9947     0.0000
  6 H      0.9535     1.0000     0.0465     1.0461     1.0461     0.0000
  7 H      0.9194     1.0000     0.0806     1.0094     1.0094    -0.0000
  8 H      0.9495     1.0000     0.0505     0.9922     0.9922     0.0000
  9 H      0.9532     1.0000     0.0468     1.0527     1.0527     0.0000
 10 H      0.9534     1.0000     0.0466     0.9945     0.9945     0.0000
 11 Br    35.8911    35.0000    -0.8911     0.2199     0.2199    -0.0000

  Mayer bond orders larger than 0.100000
B(  0-C ,  1-C ) :   1.0500 B(  0-C ,  4-H ) :   0.9638 B(  0-C ,  5-H ) :   0.9644 
B(  0-C ,  6-H ) :   0.9384 B(  1-C ,  2-C ) :   1.0458 B(  1-C ,  3-Br) :   0.9515 
B(  1-C ,  7-H ) :   0.9165 B(  2-C ,  8-H ) :   0.9648 B(  2-C ,  9-H ) :   0.9350 
B(  2-C , 10-H ) :   0.9628 


------------------
HIRSHFELD ANALYSIS
------------------

Total integrated alpha density =     48.002161009
Total integrated beta density  =     48.002161009

  ATOM     CHARGE      SPIN    
   0 C   -0.086098    0.000000
   1 C    0.043911    0.000000
   2 C   -0.087979    0.000000
   3 Br  -0.190913    0.000000
   4 H    0.027850    0.000000
   5 H    0.026950    0.000000
   6 H    0.017088    0.000000
   7 H    0.022817    0.000000
   8 H    0.026918    0.000000
   9 H    0.014215    0.000000
  10 H    0.025565    0.000000
  11 Br  -0.844646    0.000000

  TOTAL  -1.004322    0.000000

-------
TIMINGS
-------

Total SCF time: 0 days 0 hours 0 min 12 sec 

Total time                  ....      12.095 sec
Sum of individual times     ....      11.850 sec  ( 98.0%)

Fock matrix formation       ....      11.002 sec  ( 91.0%)
  Split-RI-J                ....       1.720 sec  ( 15.6% of F)
  Chain of spheres X        ....       5.620 sec  ( 51.1% of F)
  COS-X 1 center corr.      ....       0.000 sec  (  0.0% of F)
  XC integration            ....       0.603 sec  (  5.5% of F)
    Basis function eval.    ....       0.240 sec  ( 39.8% of XC)
    Density eval.           ....       0.109 sec  ( 18.0% of XC)
    XC-Functional eval.     ....       0.056 sec  (  9.3% of XC)
    XC-Potential eval.      ....       0.156 sec  ( 25.9% of XC)
Diagonalization             ....       0.015 sec  (  0.1%)
Density matrix formation    ....       0.004 sec  (  0.0%)
Population analysis         ....       0.041 sec  (  0.3%)
Initial guess               ....       0.156 sec  (  1.3%)
Orbital Transformation      ....       0.000 sec  (  0.0%)
Orbital Orthonormalization  ....       0.000 sec  (  0.0%)
DIIS solution               ....       0.004 sec  (  0.0%)
SOSCF solution              ....       0.011 sec  (  0.1%)
Grid generation             ....       0.616 sec  (  5.1%)


-------------------------------------------------------------------------------
                          DFT DISPERSION CORRECTION                            
                                                                               
                              DFTD3 V3.1  Rev 1                                
                          USING Becke-Johnson damping                          
-------------------------------------------------------------------------------
The PBE0 functional is recognized
Active option DFTDOPT                   ...         4   

molecular C6(AA) [au] = 2598.940014 


            DFT-D V3
 parameters
 s6 scaling factor         :     1.0000 
 a1 scaling factor         :     0.4145 
 s8 scaling factor         :     1.2177 
 a2 scaling factor         :     4.8593 
 ad hoc parameters k1-k3   :    16.0000     1.3333    -4.0000 

 Edisp/kcal,au: -6.162872036714  -0.009821160690 
 E6   /kcal   :  -3.678002313 
 E8   /kcal   :  -2.484869724 
 % E8         :  40.319995431 

-------------------------   ----------------
Dispersion correction           -0.009821161
-------------------------   ----------------


-------------------------   --------------------
FINAL SINGLE POINT ENERGY     -5265.582958334010
-------------------------   --------------------

[1631282533.416671] [comp0811:50728:0]            sys.c:618  UCX  ERROR shmget(size=2097152 flags=0xfb0) for mm_recv_desc failed: Operation not permitted, please check shared memory limits by 'ipcs -l'
[1631282533.424310] [comp0811:50730:0]            sys.c:618  UCX  ERROR shmget(size=2097152 flags=0xfb0) for mm_recv_desc failed: Operation not permitted, please check shared memory limits by 'ipcs -l'
[1631282533.444656] [comp0811:50729:0]            sys.c:618  UCX  ERROR shmget(size=2097152 flags=0xfb0) for mm_recv_desc failed: Operation not permitted, please check shared memory limits by 'ipcs -l'
[1631282533.446882] [comp0811:50731:0]            sys.c:618  UCX  ERROR shmget(size=2097152 flags=0xfb0) for mm_recv_desc failed: Operation not permitted, please check shared memory limits by 'ipcs -l'
[1631282533.467300] [comp0811:50730:0]            sys.c:618  UCX  ERROR shmget(size=2097152 flags=0xb80) for ucp_am_bufs failed: Operation not permitted, please check shared memory limits by 'ipcs -l'
[1631282533.467300] [comp0811:50728:0]            sys.c:618  UCX  ERROR shmget(size=2097152 flags=0xb80) for ucp_am_bufs failed: Operation not permitted, please check shared memory limits by 'ipcs -l'


           ************************************************************
           *        Program running with 4 parallel MPI-processes     *
           *              working on a common directory               *
           ************************************************************
[1631282533.472770] [comp0811:50729:0]            sys.c:618  UCX  ERROR shmget(size=2097152 flags=0xb80) for ucp_am_bufs failed: Operation not permitted, please check shared memory limits by 'ipcs -l'
------------------------------------------------------------------------------
                         ORCA SCF GRADIENT CALCULATION
------------------------------------------------------------------------------

Gradient of the Kohn-Sham DFT energy:
Kohn-Sham wavefunction type      ... RKS
Hartree-Fock exchange scaling    ...    0.250
Number of operators              ...    1
Number of atoms                  ...   12
Basis set dimensions             ...  141
Integral neglect threshold       ... 2.5e-11
Integral primitive cutoff        ... 2.5e-12

Nuclear repulsion gradient       ... done
One Electron Gradient            ... done
Pre-screening matrix             ... done
[1631282534.164743] [comp0811:50731:0]            sys.c:618  UCX  ERROR shmget(size=2097152 flags=0xb80) for ucp_am_bufs failed: Operation not permitted, please check shared memory limits by 'ipcs -l'
RI-J gradient                    ... done
COSX-gradient                    ... done
Exchange-correlation gradient    ... done
Dispersion correction            ... done

------------------
CARTESIAN GRADIENT
------------------

   1   C   :    0.000401604   -0.000328930    0.000407108
   2   C   :    0.000041189    0.000498629    0.000816633
   3   C   :    0.000685154   -0.000513980    0.000665049
   4   Br  :   -0.000066877   -0.000046303    0.000044055
   5   H   :   -0.000135339    0.000180742    0.000044477
   6   H   :   -0.000134229    0.000264127   -0.000136449
   7   H   :   -0.000385309    0.000623579    0.000752480
   8   H   :    0.000285786   -0.000732445    0.000260820
   9   H   :    0.000001082   -0.000047886   -0.000083680
  10   H   :    0.000634926    0.000689949    0.000717212
  11   H   :   -0.000112524    0.000049738   -0.000094812
  12   Br  :   -0.002204712    0.000600665   -0.004508076

Difference to translation invariance:
           :   -0.0009892496    0.0012378854   -0.0011151842

Norm of the cartesian gradient     ...    0.0056086760
RMS gradient                       ...    0.0009347793
MAX gradient                       ...    0.0045080756

-------
TIMINGS
-------

Total SCF gradient time            ...        2.328 sec

One electron gradient       ....       0.023 sec  (  1.0%)
Prescreening matrices       ....       0.108 sec  (  4.7%)
RI-J Coulomb gradient       ....       0.197 sec  (  8.5%)
COSX gradient               ....       0.839 sec  ( 36.0%)
XC gradient                 ....       0.551 sec  ( 23.7%)
CPCM gradient               ....       0.326 sec  ( 14.0%)
   A-Matrix (El+Nuc)        ....       0.030 sec  (  1.3%)
   Potential                ....       0.297 sec  ( 12.7%)
------------------------------------------------------------------------------
                         ORCA GEOMETRY RELAXATION STEP
------------------------------------------------------------------------------

Reading the OPT-File                    .... done
Getting information on internals        .... done
Copying old internal coords+grads       .... done
Making the new internal coordinates     .... (new redundants).... done
Validating the new internal coordinates .... (new redundants).... done
Calculating the B-matrix                .... done
Calculating the G,G- and P matrices     .... done
Transforming gradient to internals      .... done
Projecting the internal gradient        .... done
Number of atoms                         ....  12
Number of internal coordinates          ....  75
Current Energy                          .... -5265.582958334 Eh
Current gradient norm                   ....     0.005608676 Eh/bohr
Maximum allowed component of the step   ....  0.300
Current trust radius                    ....  0.300
Evaluating the initial hessian          ....  (Almloef) done
Projecting the Hessian                  .... done
Forming the augmented Hessian           .... done
Diagonalizing the augmented Hessian     .... done
Last element of RFO vector              ....  0.807629765
Lowest eigenvalues of augmented Hessian:
 -0.001762910  0.003220481  0.011703756  0.014337233  0.021291441
Length of the computed step             ....  0.730148780
Warning: the length of the step is outside the trust region - taking restricted step instead
The input lambda is                     ....    -0.001763
   iter:   1  x=   -0.003120  g=  326.497167 f(x)=     0.443117
   iter:   2  x=   -0.004654  g=  114.931143 f(x)=     0.176241
   iter:   3  x=   -0.005895  g=   48.657305 f(x)=     0.060398
   iter:   4  x=   -0.006406  g=   28.056507 f(x)=     0.014344
   iter:   5  x=   -0.006465  g=   22.966224 f(x)=     0.001359
   iter:   6  x=   -0.006466  g=   22.459093 f(x)=     0.000015
   iter:   7  x=   -0.006466  g=   22.453426 f(x)=     0.000000
   iter:   8  x=   -0.006466  g=   22.453425 f(x)=     0.000000
The output lambda is                    ....    -0.006466 (8 iterations)
The final length of the internal step   ....  0.300000000
Converting the step to cartesian space:
 Initial RMS(Int)=    0.0346410162
Transforming coordinates:
 Iter   0:  RMS(Cart)=    0.0238076131 RMS(Int)=    0.0347178376
 Iter   1:  RMS(Cart)=    0.0001069144 RMS(Int)=    0.0000940377
 Iter   2:  RMS(Cart)=    0.0000004328 RMS(Int)=    0.0000004249
 Iter   3:  RMS(Cart)=    0.0000000049 RMS(Int)=    0.0000000035
done
Storing new coordinates                 .... done

                                .--------------------.
          ----------------------|Geometry convergence|-------------------------
          Item                value                   Tolerance       Converged
          ---------------------------------------------------------------------
          RMS gradient        0.0003099868            0.0001000000      NO
          MAX gradient        0.0012639843            0.0003000000      NO
          RMS step            0.0346410162            0.0020000000      NO
          MAX step            0.1414709836            0.0040000000      NO
          ........................................................
          Max(Bonds)      0.0749      Max(Angles)    0.51
          Max(Dihed)        0.52      Max(Improp)    0.00
          ---------------------------------------------------------------------

The optimization has not yet converged - more geometry cycles are needed


    ---------------------------------------------------------------------------
                         Redundant Internal Coordinates
                            (Angstroem and degrees)

        Definition                    Value    dE/dq     Step     New-Value
    ----------------------------------------------------------------------------
     1. B(C   1,C   0)                1.5092  0.000123 -0.0000    1.5092   
     2. B(C   2,C   1)                1.5098  0.000281  0.0001    1.5099   
     3. B(Br  3,C   1)                1.9930 -0.000169  0.0004    1.9934   
     4. B(H   4,C   0)                1.0994 -0.000059  0.0001    1.0995   
     5. B(H   5,C   0)                1.1009 -0.000012  0.0000    1.1009   
     6. B(H   6,C   0)                1.1020 -0.000641  0.0008    1.1028   
     7. B(H   7,C   1)                1.0974 -0.000373  0.0006    1.0981   
     8. B(H   8,C   2)                1.0995 -0.000041  0.0001    1.0996   
     9. B(H   9,C   2)                1.1024 -0.000219  0.0004    1.1028   
    10. B(H  10,C   2)                1.1009  0.000012 -0.0000    1.1009   
    11. B(Br 11,H   7)                2.9615 -0.000873  0.0680    3.0296   
    12. B(Br 11,H   6)                2.9152 -0.001264  0.0707    2.9859   
    13. B(Br 11,C   2)                3.5987 -0.000987  0.0720    3.6708   
    14. B(Br 11,H   9)                2.7863 -0.001092  0.0681    2.8544   
    15. B(Br 11,C   1)                3.5162 -0.001151  0.0749    3.5911   
    16. A(C   1,C   0,H   5)          111.49  0.000011   -0.03    111.47   
    17. A(C   1,C   0,H   4)          111.80 -0.000012    0.01    111.81   
    18. A(H   4,C   0,H   5)          108.85  0.000023   -0.02    108.84   
    19. A(H   5,C   0,H   6)          109.63  0.000040   -0.05    109.58   
    20. A(C   1,C   0,H   6)          106.57  0.000058    0.04    106.61   
    21. A(H   4,C   0,H   6)          108.42 -0.000124    0.05    108.47   
    22. A(C   2,C   1,Br 11)           80.83 -0.000005    0.15     80.98   
    23. A(C   0,C   1,C   2)          113.90  0.000099   -0.02    113.88   
    24. A(Br  3,C   1,Br 11)          155.14  0.000123   -0.21    154.93   
    25. A(H   7,C   1,Br 11)           51.57  0.000047   -0.19     51.37   
    26. A(C   0,C   1,H   7)          109.89 -0.000152    0.09    109.98   
    27. A(Br  3,C   1,H   7)          103.73  0.000066   -0.01    103.72   
    28. A(C   0,C   1,Br 11)           85.16 -0.000212    0.26     85.42   
    29. A(C   0,C   1,Br  3)          109.37  0.000043   -0.07    109.30   
    30. A(C   2,C   1,Br  3)          109.57 -0.000001   -0.09    109.48   
    31. A(C   2,C   1,H   7)          109.88 -0.000057    0.10    109.98   
    32. A(H   8,C   2,H   9)          107.95  0.000024    0.06    108.01   
    33. A(C   1,C   2,H   9)          106.46 -0.000201    0.09    106.55   
    34. A(H  10,C   2,Br 11)          139.55 -0.000073    0.06    139.61   
    35. A(H   9,C   2,Br 11)           36.20 -0.000172   -0.12     36.09   
    36. A(H   8,C   2,Br 11)          104.69  0.000115   -0.21    104.48   
    37. A(C   1,C   2,Br 11)           74.71 -0.000105    0.36     75.06   
    38. A(H   9,C   2,H  10)          110.03  0.000125   -0.08    109.95   
    39. A(H   8,C   2,H  10)          108.85 -0.000038   -0.02    108.82   
    40. A(C   1,C   2,H  10)          111.72  0.000097   -0.07    111.65   
    41. A(C   1,C   2,H   8)          111.75 -0.000008    0.03    111.78   
    42. A(C   1,Br 11,C   2)           24.47  0.000110   -0.51     23.96   
    43. D(C   2,C   1,C   0,H   6)    -65.14  0.000006   -0.07    -65.21   
    44. D(Br  3,C   1,C   0,H   4)     53.59  0.000026    0.03     53.62   
    45. D(Br 11,C   1,C   0,H   6)     12.58 -0.000118    0.23     12.81   
    46. D(Br 11,C   1,C   0,H   4)   -105.71  0.000003    0.14   -105.57   
    47. D(C   2,C   1,C   0,H   4)    176.56  0.000127   -0.16    176.40   
    48. D(C   2,C   1,C   0,H   5)     54.45  0.000097   -0.12     54.33   
    49. D(H   7,C   1,C   0,H   5)    178.22 -0.000024    0.07    178.29   
    50. D(Br  3,C   1,C   0,H   6)    171.88 -0.000095    0.12    172.00   
    51. D(Br 11,C   1,C   0,H   5)    132.18 -0.000027    0.18    132.36   
    52. D(Br  3,C   1,C   0,H   5)    -68.52 -0.000004    0.07    -68.45   
    53. D(H   7,C   1,C   0,H   4)    -59.67  0.000006    0.03    -59.64   
    54. D(H   7,C   1,C   0,H   6)     58.63 -0.000115    0.12     58.75   
    55. D(H   8,C   2,C   1,H   7)     56.73  0.000000    0.09     56.82   
    56. D(H   8,C   2,C   1,Br  3)    -56.63 -0.000047    0.09    -56.53   
    57. D(H   8,C   2,C   1,C   0)   -179.49 -0.000172    0.27   -179.22   
    58. D(Br 11,C   2,C   1,C   0)     80.50 -0.000263    0.37     80.87   
    59. D(H  10,C   2,C   1,Br 11)   -137.76  0.000106   -0.16   -137.92   
    60. D(H  10,C   2,C   1,Br  3)     65.60 -0.000031    0.03     65.64   
    61. D(H  10,C   2,C   1,C   0)    -57.26 -0.000157    0.21    -57.05   
    62. D(H   9,C   2,C   1,Br 11)    -17.62  0.000187   -0.25    -17.87   
    63. D(H   9,C   2,C   1,H   7)    -60.90  0.000097   -0.06    -60.96   
    64. D(H  10,C   2,C   1,H   7)    178.96  0.000016    0.03    178.99   
    65. D(H   9,C   2,C   1,Br  3)   -174.26  0.000050   -0.05   -174.31   
    66. D(H   9,C   2,C   1,C   0)     62.88 -0.000076    0.13     63.00   
    67. D(Br 11,C   2,C   1,Br  3)   -156.64 -0.000137    0.20   -156.44   
    68. D(Br 11,C   2,C   1,H   7)    -43.28 -0.000090    0.19    -43.09   
    69. D(H   8,C   2,C   1,Br 11)    100.01  0.000091   -0.10     99.91   
    70. D(C   1,Br 11,C   2,H   8)   -108.99  0.000051   -0.14   -109.13   
    71. D(C   2,Br 11,C   1,H   7)    124.61 -0.000114    0.12    124.73   
    72. D(C   2,Br 11,C   1,Br  3)    117.30  0.000101   -0.08    117.23   
    73. D(C   2,Br 11,C   1,C   0)   -115.19 -0.000148    0.11   -115.08   
    74. D(C   1,Br 11,C   2,H  10)    105.70  0.000027    0.30    106.00   
    75. D(C   1,Br 11,C   2,H   9)    150.56  0.000167   -0.52    150.05   
    ----------------------------------------------------------------------------

         *************************************************************
         *                GEOMETRY OPTIMIZATION CYCLE   2            *
         *************************************************************
---------------------------------
CARTESIAN COORDINATES (ANGSTROEM)
---------------------------------
  C      1.397047   -0.508572   -0.830201
  C      0.118260   -0.243476   -0.073864
  C     -0.682184   -1.487557    0.228174
  Br    -1.006613    1.035800   -1.109068
  H      1.920339    0.423623   -1.087173
  H      1.208283   -1.076536   -1.754223
  H      2.043481   -1.098552   -0.159241
  H      0.337735    0.296616    0.856663
  H     -1.611767   -1.253852    0.767015
  H     -0.054923   -2.112549    0.885571
  H     -0.933210   -2.041796   -0.689343
  Br     1.925102   -1.389318    2.810191

----------------------------
CARTESIAN COORDINATES (A.U.)
----------------------------
  NO LB      ZA    FRAG     MASS         X           Y           Z
   0 C     6.0000    0    12.011    2.640035   -0.961062   -1.568853
   1 C     6.0000    0    12.011    0.223478   -0.460103   -0.139583
   2 C     6.0000    0    12.011   -1.289141   -2.811075    0.431187
   3 Br   35.0000    0    79.900   -1.902222    1.957379   -2.095834
   4 H     1.0000    0     1.008    3.628915    0.800532   -2.054460
   5 H     1.0000    0     1.008    2.283324   -2.034358   -3.315001
   6 H     1.0000    0     1.008    3.861620   -2.075962   -0.300922
   7 H     1.0000    0     1.008    0.638226    0.560522    1.618858
   8 H     1.0000    0     1.008   -3.045798   -2.369438    1.449448
   9 H     1.0000    0     1.008   -0.103790   -3.992140    1.673486
  10 H     1.0000    0     1.008   -1.763512   -3.858436   -1.302670
  11 Br   35.0000    0    79.900    3.637916   -2.625431    5.310491

--------------------------------
INTERNAL COORDINATES (ANGSTROEM)
--------------------------------
 C      0   0   0     0.000000000000     0.00000000     0.00000000
 C      1   0   0     1.509177758732     0.00000000     0.00000000
 C      2   1   0     1.509859287735   113.87428397     0.00000000
 Br     2   1   3     1.993371870028   109.30679275   237.21301054
 H      1   2   3     1.099481063809   111.80746840   176.40525744
 H      1   2   3     1.100922557950   111.46706637    54.33250457
 H      1   2   3     1.102787795606   106.60394221   294.78926768
 H      2   1   3     1.098066274895   109.98228386   123.95680567
 H      3   2   1     1.099586426447   111.78249924   180.77419110
 H      3   2   1     1.102833589762   106.53920265    63.00014729
 H      3   2   1     1.100924389728   111.65239610   302.94649143
 Br    10   3   2     2.854422206191   130.75866749    30.21304711

---------------------------
INTERNAL COORDINATES (A.U.)
---------------------------
[...]
  40   2.0000      -0.361544        -9.8381 
  41   2.0000      -0.361209        -9.8290 
  42   2.0000      -0.336800        -9.1648 
  43   2.0000      -0.281239        -7.6529 
  44   2.0000      -0.281114        -7.6495 
  45   2.0000      -0.215138        -5.8542 
  46   2.0000      -0.214956        -5.8493 
  47   2.0000      -0.214557        -5.8384 
  48   0.0000       0.017067         0.4644 
  49   0.0000       0.089843         2.4447 
  50   0.0000       0.123107         3.3499 
  51   0.0000       0.130192         3.5427 
  52   0.0000       0.148733         4.0472 
  53   0.0000       0.161444         4.3931 
  54   0.0000       0.175764         4.7828 
  55   0.0000       0.183139         4.9835 
  56   0.0000       0.212787         5.7902 
  57   0.0000       0.245143         6.6707 
  58   0.0000       0.331671         9.0252 
  59   0.0000       0.383678        10.4404 
  60   0.0000       0.407013        11.0754 
  61   0.0000       0.420026        11.4295 
  62   0.0000       0.431650        11.7458 
  63   0.0000       0.433067        11.7844 
  64   0.0000       0.491498        13.3744 
  65   0.0000       0.539482        14.6800 
  66   0.0000       0.549295        14.9471 
  67   0.0000       0.569072        15.4852 
  68   0.0000       0.580028        15.7834 
  69   0.0000       0.600000        16.3268 
  70   0.0000       0.616696        16.7812 
  71   0.0000       0.623331        16.9617 
  72   0.0000       0.629436        17.1278 
  73   0.0000       0.634642        17.2695 
  74   0.0000       0.634945        17.2777 
  75   0.0000       0.648041        17.6341 
  76   0.0000       0.657600        17.8942 
  77   0.0000       0.671577        18.2745 
  78   0.0000       0.677647        18.4397 
  79   0.0000       0.685560        18.6550 
  80   0.0000       0.688801        18.7432 
  81   0.0000       0.690199        18.7813 
  82   0.0000       0.709822        19.3152 
  83   0.0000       0.711018        19.3478 
  84   0.0000       0.726822        19.7778 
  85   0.0000       0.728107        19.8128 
  86   0.0000       0.761402        20.7188 
  87   0.0000       0.781583        21.2679 
  88   0.0000       0.788006        21.4427 
  89   0.0000       0.805500        21.9188 
  90   0.0000       0.857934        23.3456 
  91   0.0000       0.863356        23.4931 
  92   0.0000       1.045580        28.4517 
  93   0.0000       1.060539        28.8587 
  94   0.0000       1.101829        29.9823 
  95   0.0000       1.164358        31.6838 
  96   0.0000       1.220446        33.2100 
  97   0.0000       1.309710        35.6390 
  98   0.0000       1.514670        41.2163 
  99   0.0000       1.548844        42.1462 
 100   0.0000       1.549480        42.1635 
 101   0.0000       1.552402        42.2430 
 102   0.0000       1.619468        44.0680 
 103   0.0000       1.752719        47.6939 
 104   0.0000       1.762436        47.9583 
 105   0.0000       1.789490        48.6945 
 106   0.0000       1.816438        49.4278 
 107   0.0000       1.830192        49.8021 
 108   0.0000       1.839919        50.0667 
 109   0.0000       1.864139        50.7258 
 110   0.0000       1.883201        51.2445 
 111   0.0000       1.923992        52.3545 
 112   0.0000       1.962806        53.4107 
 113   0.0000       2.030562        55.2544 
 114   0.0000       2.162725        58.8507 
 115   0.0000       2.163608        58.8748 
 116   0.0000       2.261395        61.5357 
 117   0.0000       2.266946        61.6867 
 118   0.0000       2.392027        65.0904 
 119   0.0000       2.406666        65.4887 
 120   0.0000       2.496317        67.9282 
 121   0.0000       2.576277        70.1041 
 122   0.0000       2.600361        70.7594 
 123   0.0000       2.614249        71.1373 
 124   0.0000       2.750165        74.8358 
 125   0.0000       2.864364        77.9433 
 126   0.0000       2.920414        79.4685 
 127   0.0000       2.928601        79.6913 
 128   0.0000       3.006153        81.8016 
 129   0.0000       3.026972        82.3681 
 130   0.0000       3.057062        83.1869 
 131   0.0000       3.492246        95.0288 
 132   0.0000       3.506413        95.4143 
 133   0.0000       3.561788        96.9212 
 134   0.0000       3.562005        96.9271 
 135   0.0000       3.569069        97.1193 
 136   0.0000       3.573296        97.2343 
 137   0.0000       3.576351        97.3175 
 138   0.0000       3.605944        98.1227 
 139   0.0000       3.620118        98.5084 
 140   0.0000       3.828310       104.1736 

                    ********************************
                    * MULLIKEN POPULATION ANALYSIS *
                    ********************************

-----------------------
MULLIKEN ATOMIC CHARGES
-----------------------
   0 C :   -0.030454
   1 C :   -0.228822
   2 C :   -0.026781
   3 Br:   -0.203283
   4 H :    0.060600
   5 H :    0.055432
   6 H :    0.052081
   7 H :    0.089836
   8 H :    0.059979
   9 H :    0.050276
  10 H :    0.054242
  11 Br:   -0.933106
Sum of atomic charges:   -1.0000000

--------------------------------
MULLIKEN REDUCED ORBITAL CHARGES
--------------------------------
  0 C s       :     3.026845  s :     3.026845
      pz      :     1.014289  p :     2.976759
      px      :     0.934420
      py      :     1.028051
      dz2     :     0.004091  d :     0.026850
      dxz     :     0.006242
      dyz     :     0.006269
      dx2y2   :     0.003998
      dxy     :     0.006249
  1 C s       :     3.237416  s :     3.237416
      pz      :     1.011768  p :     2.944951
      px      :     0.970563
      py      :     0.962620
      dz2     :     0.006845  d :     0.046455
      dxz     :     0.008984
      dyz     :     0.010579
      dx2y2   :     0.008734
      dxy     :     0.011312
  2 C s       :     3.025464  s :     3.025464
      pz      :     1.018252  p :     2.974528
      px      :     1.008208
      py      :     0.948068
      dz2     :     0.003068  d :     0.026789
      dxz     :     0.006177
      dyz     :     0.006782
      dx2y2   :     0.004260
      dxy     :     0.006502
  3 Brs       :     7.968425  s :     7.968425
      pz      :     5.768417  p :    17.197375
      px      :     5.743160
      py      :     5.685798
      dz2     :     2.005040  d :    10.037483
      dxz     :     2.008628
      dyz     :     2.008987
      dx2y2   :     2.005034
      dxy     :     2.009794
  4 H s       :     0.915652  s :     0.915652
      pz      :     0.005305  p :     0.023747
      px      :     0.006328
      py      :     0.012115
  5 H s       :     0.920963  s :     0.920963
      pz      :     0.011938  p :     0.023605
      px      :     0.004239
      py      :     0.007428
  6 H s       :     0.923426  s :     0.923426
      pz      :     0.008496  p :     0.024493
      px      :     0.008035
      py      :     0.007962
  7 H s       :     0.888596  s :     0.888596
      pz      :     0.011859  p :     0.021568
      px      :     0.003595
      py      :     0.006115
  8 H s       :     0.916285  s :     0.916285
      pz      :     0.007388  p :     0.023736
      px      :     0.011818
      py      :     0.004530
  9 H s       :     0.925021  s :     0.925021
      pz      :     0.008684  p :     0.024703
      px      :     0.008041
      py      :     0.007978
 10 H s       :     0.922140  s :     0.922140
      pz      :     0.011829  p :     0.023619
      px      :     0.005310
      py      :     0.006479
 11 Brs       :     7.998265  s :     7.998265
      pz      :     5.963026  p :    17.934639
      px      :     5.982963
      py      :     5.988649
      dz2     :     2.000064  d :    10.000202
      dxz     :     2.000076
      dyz     :     2.000029
      dx2y2   :     2.000014
      dxy     :     2.000019


                     *******************************
                     * LOEWDIN POPULATION ANALYSIS *
                     *******************************

----------------------
LOEWDIN ATOMIC CHARGES
----------------------
   0 C :   -0.082105
   1 C :   -0.071746
   2 C :   -0.082243
   3 Br:   -0.053853
   4 H :    0.034717
   5 H :    0.033814
   6 H :    0.033738
   7 H :    0.030954
   8 H :    0.034787
   9 H :    0.031910
  10 H :    0.033028
  11 Br:   -0.943000

-------------------------------
LOEWDIN REDUCED ORBITAL CHARGES
-------------------------------
  0 C s       :     2.848999  s :     2.848999
      pz      :     1.060072  p :     3.161885
      px      :     1.026938
      py      :     1.074876
      dz2     :     0.010293  d :     0.071221
      dxz     :     0.017226
      dyz     :     0.016118
      dx2y2   :     0.011248
      dxy     :     0.016335
  1 C s       :     2.912546  s :     2.912546
      pz      :     1.031296  p :     3.056656
      px      :     1.012835
      py      :     1.012525
      dz2     :     0.015142  d :     0.102544
      dxz     :     0.020474
      dyz     :     0.023005
      dx2y2   :     0.018650
      dxy     :     0.025273
  2 C s       :     2.849082  s :     2.849082
      pz      :     1.072036  p :     3.162011
      px      :     1.055352
      py      :     1.034623
      dz2     :     0.008235  d :     0.071149
      dxz     :     0.016185
      dyz     :     0.017522
      dx2y2   :     0.011176
      dxy     :     0.018032
  3 Brs       :     7.836616  s :     7.836616
      pz      :     5.760842  p :    17.168096
      px      :     5.729769
      py      :     5.677485
      dz2     :     2.006280  d :    10.049141
      dxz     :     2.011011
      dyz     :     2.011869
      dx2y2   :     2.006433
      dxy     :     2.013548
  4 H s       :     0.898468  s :     0.898468
      pz      :     0.014093  p :     0.066815
      px      :     0.019165
      py      :     0.033557
  5 H s       :     0.899524  s :     0.899524
      pz      :     0.033451  p :     0.066662
      px      :     0.012817
      py      :     0.020394
  6 H s       :     0.897864  s :     0.897864
      pz      :     0.023347  p :     0.068398
      px      :     0.023504
      py      :     0.021546
  7 H s       :     0.896839  s :     0.896839
      pz      :     0.037882  p :     0.072207
      px      :     0.014163
      py      :     0.020163
  8 H s       :     0.898449  s :     0.898449
      pz      :     0.020109  p :     0.066764
      px      :     0.033165
      py      :     0.013490
  9 H s       :     0.899165  s :     0.899165
      pz      :     0.023297  p :     0.068925
      px      :     0.022240
      py      :     0.023388
 10 H s       :     0.900285  s :     0.900285
      pz      :     0.032772  p :     0.066687
      px      :     0.014218
      py      :     0.019697
 11 Brs       :     7.997983  s :     7.997983
      pz      :     5.968028  p :    17.944800
      px      :     5.985431
      py      :     5.991341
      dz2     :     2.000071  d :    10.000216
      dxz     :     2.000074
      dyz     :     2.000033
      dx2y2   :     2.000014
      dxy     :     2.000024


                      *****************************
                      * MAYER POPULATION ANALYSIS *
                      *****************************

  NA   - Mulliken gross atomic population
  ZA   - Total nuclear charge
  QA   - Mulliken gross atomic charge
  VA   - Mayer's total valence
  BVA  - Mayer's bonded valence
  FA   - Mayer's free valence

  ATOM       NA         ZA         QA         VA         BVA        FA
  0 C      6.0305     6.0000    -0.0305     3.8779     3.8779     0.0000
  1 C      6.2288     6.0000    -0.2288     4.0382     4.0382     0.0000
  2 C      6.0268     6.0000    -0.0268     3.8727     3.8727    -0.0000
  3 Br    35.2033    35.0000    -0.2033     1.0004     1.0004     0.0000
  4 H      0.9394     1.0000     0.0606     0.9907     0.9907    -0.0000
  5 H      0.9446     1.0000     0.0554     0.9951     0.9951     0.0000
  6 H      0.9479     1.0000     0.0521     1.0273     1.0273     0.0000
  7 H      0.9102     1.0000     0.0898     0.9876     0.9876    -0.0000
  8 H      0.9400     1.0000     0.0600     0.9903     0.9903    -0.0000
  9 H      0.9497     1.0000     0.0503     1.0331     1.0331    -0.0000
 10 H      0.9458     1.0000     0.0542     0.9952     0.9952     0.0000
 11 Br    35.9331    35.0000    -0.9331     0.1353     0.1353     0.0000

  Mayer bond orders larger than 0.100000
B(  0-C ,  1-C ) :   1.0467 B(  0-C ,  4-H ) :   0.9639 B(  0-C ,  5-H ) :   0.9647 
B(  0-C ,  6-H ) :   0.9460 B(  1-C ,  2-C ) :   1.0423 B(  1-C ,  3-Br) :   0.9633 
B(  1-C ,  7-H ) :   0.9260 B(  2-C ,  8-H ) :   0.9651 B(  2-C ,  9-H ) :   0.9453 
B(  2-C , 10-H ) :   0.9632 


------------------
HIRSHFELD ANALYSIS
------------------

Total integrated alpha density =     48.001024975
Total integrated beta density  =     48.001024975

  ATOM     CHARGE      SPIN    
   0 C   -0.080683    0.000000
   1 C    0.046645    0.000000
   2 C   -0.081643    0.000000
   3 Br  -0.175329    0.000000
   4 H    0.031566    0.000000
   5 H    0.030755    0.000000
   6 H    0.025407    0.000000
   7 H    0.030717    0.000000
   8 H    0.031427    0.000000
   9 H    0.023024    0.000000
  10 H    0.029887    0.000000
  11 Br  -0.913824    0.000000

  TOTAL  -1.002050    0.000000

-------
TIMINGS
-------

Total SCF time: 0 days 0 hours 0 min 6 sec 

Total time                  ....       6.009 sec
Sum of individual times     ....       5.817 sec  ( 96.8%)

Fock matrix formation       ....       5.125 sec  ( 85.3%)
  Split-RI-J                ....       0.707 sec  ( 13.8% of F)
  Chain of spheres X        ....       2.884 sec  ( 56.3% of F)
  COS-X 1 center corr.      ....       0.000 sec  (  0.0% of F)
  XC integration            ....       0.306 sec  (  6.0% of F)
    Basis function eval.    ....       0.121 sec  ( 39.5% of XC)
    Density eval.           ....       0.055 sec  ( 18.0% of XC)
    XC-Functional eval.     ....       0.030 sec  (  9.7% of XC)
    XC-Potential eval.      ....       0.074 sec  ( 24.0% of XC)
Diagonalization             ....       0.003 sec  (  0.0%)
Density matrix formation    ....       0.002 sec  (  0.0%)
Population analysis         ....       0.039 sec  (  0.7%)
Initial guess               ....       0.008 sec  (  0.1%)
Orbital Transformation      ....       0.000 sec  (  0.0%)
Orbital Orthonormalization  ....       0.005 sec  (  0.1%)
DIIS solution               ....       0.000 sec  (  0.0%)
SOSCF solution              ....       0.006 sec  (  0.1%)
Grid generation             ....       0.633 sec  ( 10.5%)


-------------------------------------------------------------------------------
                          DFT DISPERSION CORRECTION                            
                                                                               
                              DFTD3 V3.1  Rev 1                                
                          USING Becke-Johnson damping                          
-------------------------------------------------------------------------------
The PBE0 functional is recognized
Active option DFTDOPT                   ...         4   

molecular C6(AA) [au] = 2599.158204 


            DFT-D V3
 parameters
 s6 scaling factor         :     1.0000 
 a1 scaling factor         :     0.4145 
 s8 scaling factor         :     1.2177 
 a2 scaling factor         :     4.8593 
 ad hoc parameters k1-k3   :    16.0000     1.3333    -4.0000 

 Edisp/kcal,au: -5.714597103675  -0.009106789189 
 E6   /kcal   :  -3.449116710 
 E8   /kcal   :  -2.265480394 
 % E8         :  39.643746585 

-------------------------   ----------------
Dispersion correction           -0.009106789
-------------------------   ----------------


-------------------------   --------------------
FINAL SINGLE POINT ENERGY     -5265.584405641453
-------------------------   --------------------

                                *** OPTIMIZATION RUN DONE ***

                            ***************************************
                            *     ORCA property calculations      *
                            ***************************************

                                    ---------------------
                                    Active property flags
                                    ---------------------
   (+) Dipole Moment


------------------------------------------------------------------------------
                       ORCA ELECTRIC PROPERTIES CALCULATION
------------------------------------------------------------------------------

Dipole Moment Calculation                       ... on
Quadrupole Moment Calculation                   ... off
Polarizability Calculation                      ... off
GBWName                                         ... manual_reactants_332.gbw
Electron density file                           ... manual_reactants_332.scfp
The origin for moment calculation is the CENTER OF MASS  = ( 0.922425, -0.631832  1.379727)

-------------
DIPOLE MOMENT
-------------
                                X             Y             Z
Electronic contribution:     -0.61539       7.68799       7.31891
Nuclear contribution   :     -1.60764      -6.41084     -10.96365
                        -----------------------------------------
Total Dipole Moment    :     -2.22303       1.27715      -3.64474
                        -----------------------------------------
Magnitude (a.u.)       :      4.45613
Magnitude (Debye)      :     11.32658



--------------------
Rotational spectrum 
--------------------
 
Rotational constants in cm-1:     0.157075     0.011641     0.011600 
Rotational constants in MHz :  4708.985442   348.985849   347.761557 

 Dipole components along the rotational axes: 
x,y,z [a.u.] :    -4.411098    -0.357536     0.521018 
x,y,z [Debye]:   -11.212120    -0.908785     1.324323 

 
[1631282722.527758] [comp0811:53026:0]            sys.c:618  UCX  ERROR shmget(size=2097152 flags=0xfb0) for mm_recv_desc failed: Operation not permitted, please check shared memory limits by 'ipcs -l'
[1631282722.536103] [comp0811:53024:0]            sys.c:618  UCX  ERROR shmget(size=2097152 flags=0xfb0) for mm_recv_desc failed: Operation not permitted, please check shared memory limits by 'ipcs -l'
[1631282722.546661] [comp0811:53025:0]            sys.c:618  UCX  ERROR shmget(size=2097152 flags=0xfb0) for mm_recv_desc failed: Operation not permitted, please check shared memory limits by 'ipcs -l'
[1631282722.557631] [comp0811:53027:0]            sys.c:618  UCX  ERROR shmget(size=2097152 flags=0xfb0) for mm_recv_desc failed: Operation not permitted, please check shared memory limits by 'ipcs -l'
[1631282722.573782] [comp0811:53024:0]            sys.c:618  UCX  ERROR shmget(size=2097152 flags=0xb80) for ucp_am_bufs failed: Operation not permitted, please check shared memory limits by 'ipcs -l'
[1631282722.574187] [comp0811:53026:0]            sys.c:618  UCX  ERROR shmget(size=2097152 flags=0xb80) for ucp_am_bufs failed: Operation not permitted, please check shared memory limits by 'ipcs -l'
[1631282722.576844] [comp0811:53025:0]            sys.c:618  UCX  ERROR shmget(size=2097152 flags=0xb80) for ucp_am_bufs failed: Operation not permitted, please check shared memory limits by 'ipcs -l'
[1631282722.586921] [comp0811:53027:0]            sys.c:618  UCX  ERROR shmget(size=2097152 flags=0xb80) for ucp_am_bufs failed: Operation not permitted, please check shared memory limits by 'ipcs -l'

Timings for individual modules:

Sum of individual times         ...      201.183 sec (=   3.353 min)
GTO integral calculation        ...       17.342 sec (=   0.289 min)   8.6 %
SCF iterations                  ...      136.036 sec (=   2.267 min)  67.6 %
SCF Gradient evaluation         ...       46.312 sec (=   0.772 min)  23.0 %
Geometry relaxation             ...        1.493 sec (=   0.025 min)   0.7 %
                             ****ORCA TERMINATED NORMALLY****
TOTAL RUN TIME: 0 days 0 hours 3 minutes 24 seconds 537 msec
