
                                 *****************
                                 * O   R   C   A *
                                 *****************

           --- An Ab Initio, DFT and Semiempirical electronic structure package ---

                  #######################################################
                  #                        -***-                        #
                  #          Department of theory and spectroscopy      #
                  #               Directorship: Frank Neese             #
                  #        Max Planck Institute fuer Kohlenforschung    #
                  #                Kaiser Wilhelm Platz 1               #
                  #                 D-45470 Muelheim/Ruhr               #
                  #                      Germany                        #
                  #                                                     #
                  #                  All rights reserved                #
                  #                        -***-                        #
                  #######################################################


                         Program Version 4.2.1 -  RELEASE  -


 With contributions from (in alphabetic order):
   Daniel Aravena         : Magnetic Suceptibility
   Michael Atanasov       : Ab Initio Ligand Field Theory (pilot matlab implementation)
   Alexander A. Auer      : GIAO ZORA, VPT2
   Ute Becker             : Parallelization
   Giovanni Bistoni       : ED, misc. LED, open-shell LED, HFLD
   Martin Brehm           : Molecular dynamics
   Dmytro Bykov           : SCF Hessian
   Vijay G. Chilkuri      : MRCI spin determinant printing, contributions to CSF-ICE
   Dipayan Datta          : RHF DLPNO-CCSD density
   Achintya Kumar Dutta   : EOM-CC, STEOM-CC
   Dmitry Ganyushin       : Spin-Orbit,Spin-Spin,Magnetic field MRCI
   Miquel Garcia          : C-PCM Hessian, Gaussian charge scheme
   Yang Guo               : DLPNO-NEVPT2, CIM, IAO-localization
   Andreas Hansen         : Spin unrestricted coupled pair/coupled cluster methods
   Benjamin Helmich-Paris : CASSCF linear response (MC-RPA)
   Lee Huntington         : MR-EOM, pCC
   Robert Izsak           : Overlap fitted RIJCOSX, COSX-SCS-MP3, EOM
   Christian Kollmar      : KDIIS, OOCD, Brueckner-CCSD(T), CCSD density
   Simone Kossmann        : Meta GGA functionals, TD-DFT gradient, OOMP2, MP2 Hessian
   Martin Krupicka        : AUTO-CI
   Lucas Lang             : DCDCAS
   Dagmar Lenk            : GEPOL surface, SMD
   Dimitrios Liakos       : Extrapolation schemes; Compound Job, initial MDCI parallelization
   Dimitrios Manganas     : Further ROCIS development; embedding schemes
   Dimitrios Pantazis     : SARC Basis sets
   Taras Petrenko         : DFT Hessian,TD-DFT gradient, ASA, ECA, R-Raman, ABS, FL, XAS/XES, NRVS
   Peter Pinski           : DLPNO-MP2, DLPNO-MP2 Gradient
   Christoph Reimann      : Effective Core Potentials
   Marius Retegan         : Local ZFS, SOC
   Christoph Riplinger    : Optimizer, TS searches, QM/MM, DLPNO-CCSD(T), (RO)-DLPNO pert. Triples
   Tobias Risthaus        : Range-separated hybrids, TD-DFT gradient, RPA, STAB
   Michael Roemelt        : Original ROCIS implementation
   Masaaki Saitow         : Open-shell DLPNO-CCSD energy and density
   Barbara Sandhoefer     : DKH picture change effects
   Avijit Sen             : IP-ROCIS
   Kantharuban Sivalingam : CASSCF convergence, NEVPT2, FIC-MRCI
   Bernardo de Souza      : ESD, SOC TD-DFT
   Georgi Stoychev        : AutoAux, RI-MP2 NMR
   Willem Van den Heuvel  : Paramagnetic NMR
   Boris Wezisla          : Elementary symmetry handling
   Frank Wennmohs         : Technical directorship


 We gratefully acknowledge several colleagues who have allowed us to
 interface, adapt or use parts of their codes:
   Stefan Grimme, W. Hujo, H. Kruse,             : VdW corrections, initial TS optimization,
                  C. Bannwarth                     DFT functionals, gCP, sTDA/sTD-DF
   Ed Valeev, F. Pavosevic, A. Kumar             : LibInt (2-el integral package), F12 methods
   Garnet Chan, S. Sharma, J. Yang, R. Olivares  : DMRG
   Ulf Ekstrom                                   : XCFun DFT Library
   Mihaly Kallay                                 : mrcc  (arbitrary order and MRCC methods)
   Andreas Klamt, Michael Diedenhofen            : otool_cosmo (COSMO solvation model)
   Jiri Pittner, Ondrej Demel                    : Mk-CCSD
   Frank Weinhold                                : gennbo (NPA and NBO analysis)
   Christopher J. Cramer and Donald G. Truhlar   : smd solvation model
   Lars Goerigk                                  : TD-DFT with DH, B97 family of functionals
   V. Asgeirsson, H. Jonsson                     : NEB implementation
   FAccTs GmbH                                   : IRC, NEB, NEB-TS, Multilevel, MM, QM/MM, CI optimization
   S Lehtola, MJT Oliveira, MAL Marques          : LibXC Library


 Your calculation uses the libint2 library for the computation of 2-el integrals
 For citations please refer to: http://libint.valeyev.net

 Your ORCA version has been built with support for libXC version: 4.2.3
 For citations please refer to: https://tddft.org/programs/libxc/

 This ORCA versions uses:
   CBLAS   interface :  Fast vector & matrix operations
   LAPACKE interface :  Fast linear algebra routines
   SCALAPACK package :  Parallel linear algebra routines


Your calculation utilizes the atom-pairwise dispersion correction
with the Becke-Johnson damping scheme (D3BJ)
Cite in your paper:
S.Grimme, S.Ehrlich, L.Goerigk, J Comput Chem, (2011), 32, 1456–1465 
S.Grimme, J.Antony, S.Ehrlich and H.Krieg, J.Chem.Phys., 132, (2010), 154104 
   

----- Orbital basis set information -----
Your calculation utilizes the basis: def2-SVP
   F. Weigend and R. Ahlrichs, Phys. Chem. Chem. Phys. 7, 3297 (2005).

----- AuxJ basis set information -----
Your calculation utilizes the auxiliary basis: def2/J
   F. Weigend, Phys. Chem. Chem. Phys. 8, 1057 (2006).

================================================================================
                                        WARNINGS
                       Please study these warnings very carefully!
================================================================================


WARNING: Geometry Optimization
  ===> : Switching off AutoStart
         For restart on a previous wavefunction, please use MOREAD

INFO   : the flag for use of LIBINT has been found!

================================================================================
                                       INPUT FILE
================================================================================
NAME = manual_reactants_341_opt.inp
|  1> ! Opt PBE0 RIJCOSX D3BJ def2-SVP def2/J CPCM(DMF)
|  2> %geom MaxIter 100 end
|  3> %output 
|  4> xyzfile=True 
|  5> end 
|  6> %scf 
|  7> maxiter 250 
|  8> end
|  9> %output
| 10> Print[P_Hirshfeld] = 1
| 11> end
| 12> % maxcore
| 13> 4000
| 14> %pal nprocs 4
| 15> end
| 16> *xyz -1 1
| 17> C    -0.56423  -0.20857   0.42187
| 18> Br   -0.63288   0.32183  -1.44553
| 19> H    -1.14065   0.52227   0.99763
| 20> H     0.47443  -0.22875   0.77410
| 21> H    -1.01333  -1.20503   0.50414
| 22> Cl    1.66529  -0.62877   3.05032
| 23> *
| 24> 
| 25>                          ****END OF INPUT****
================================================================================

                       *****************************
                       * Geometry Optimization Run *
                       *****************************

Geometry optimization settings:
Update method            Update   .... BFGS
Choice of coordinates    CoordSys .... Z-matrix Internals
Initial Hessian          InHess   .... Almoef's Model

Convergence Tolerances:
Energy Change            TolE     ....  5.0000e-06 Eh
Max. Gradient            TolMAXG  ....  3.0000e-04 Eh/bohr
RMS Gradient             TolRMSG  ....  1.0000e-04 Eh/bohr
Max. Displacement        TolMAXD  ....  4.0000e-03 bohr
RMS Displacement         TolRMSD  ....  2.0000e-03 bohr
Strict Convergence                ....  False
------------------------------------------------------------------------------
                        ORCA OPTIMIZATION COORDINATE SETUP
------------------------------------------------------------------------------

The optimization will be done in new redundant internal coordinates
Making redundant internal coordinates   ...  (new redundants) done
Evaluating the initial hessian          ...  (Almloef) done
Evaluating the coordinates              ...  done
Calculating the B-matrix                .... done
Calculating the G-matrix                .... done
Diagonalizing the G-matrix              .... done
The first mode is                       ....    3
The number of degrees of freedom        ....   12

    -----------------------------------------------------------------
                    Redundant Internal Coordinates


    -----------------------------------------------------------------
         Definition                    Initial Value    Approx d2E/dq
    -----------------------------------------------------------------
      1. B(Br  1,C   0)                  1.9425         0.275924   
      2. B(H   2,C   0)                  1.0945         0.354222   
      3. B(H   3,C   0)                  1.0969         0.351029   
      4. B(H   4,C   0)                  1.0961         0.352146   
      5. B(Cl  5,H   3)                  2.5999         0.003151   
      6. A(Br  1,C   0,H   3)          110.3148         0.326017   
      7. A(Br  1,C   0,H   2)          107.7450         0.326504   
      8. A(Br  1,C   0,H   4)          107.8131         0.326188   
      9. A(H   2,C   0,H   4)          110.5965         0.289075   
     10. A(H   3,C   0,H   4)          110.3123         0.288665   
     11. A(H   2,C   0,H   3)          110.0015         0.288931   
     12. A(C   0,H   3,Cl  5)          135.8621         0.163174   
     13. D(Cl  5,H   3,C   0,H   2)     56.4066         0.114166   
     14. D(Cl  5,H   3,C   0,H   4)    -65.8644         0.114166   
     15. D(Cl  5,H   3,C   0,Br  1)    175.1319         0.114166   
    -----------------------------------------------------------------

Number of atoms                         .... 6
Number of degrees of freedom            .... 15

         *************************************************************
         *                GEOMETRY OPTIMIZATION CYCLE   1            *
         *************************************************************
---------------------------------
CARTESIAN COORDINATES (ANGSTROEM)
---------------------------------
  C     -0.564230   -0.208570    0.421870
  Br    -0.632880    0.321830   -1.445530
  H     -1.140650    0.522270    0.997630
  H      0.474430   -0.228750    0.774100
  H     -1.013330   -1.205030    0.504140
  Cl     1.665290   -0.628770    3.050320

----------------------------
CARTESIAN COORDINATES (A.U.)
----------------------------
  NO LB      ZA    FRAG     MASS         X           Y           Z
   0 C     6.0000    0    12.011   -1.066240   -0.394140    0.797219
   1 Br   35.0000    0    79.900   -1.195970    0.608171   -2.731656
   2 H     1.0000    0     1.008   -2.155516    0.986947    1.885247
   3 H     1.0000    0     1.008    0.896543   -0.432275    1.462837
   4 H     1.0000    0     1.008   -1.914916   -2.277177    0.952687
   5 Cl   17.0000    0    35.453    3.146942   -1.188203    5.764269

--------------------------------
INTERNAL COORDINATES (ANGSTROEM)
--------------------------------
 C      0   0   0     0.000000000000     0.00000000     0.00000000
 Br     1   0   0     1.942477732820     0.00000000     0.00000000
 H      1   2   0     1.094480104707   107.74499064     0.00000000
 H      1   2   3     1.096944757451   110.31475152   239.90614688
 H      1   2   3     1.096080149670   107.81309627   119.39190245
 Cl     4   1   2     2.599873271604   135.86211291   175.13189509

---------------------------
INTERNAL COORDINATES (A.U.)
---------------------------
 C      0   0   0     0.000000000000     0.00000000     0.00000000
 Br     1   0   0     3.670750936269     0.00000000     0.00000000
 H      1   2   0     2.068267656922   107.74499064     0.00000000
 H      1   2   3     2.072925175624   110.31475152   239.90614688
 H      1   2   3     2.071291303703   107.81309627   119.39190245
 Cl     4   1   2     4.913048466233   135.86211291   175.13189509

---------------------
BASIS SET INFORMATION
---------------------
There are 4 groups of distinct atoms

 Group   1 Type C   : 7s4p1d contracted to 3s2p1d pattern {511/31/1}
 Group   2 Type Br  : 14s10p6d contracted to 5s4p3d pattern {63311/5311/411}
 Group   3 Type H   : 4s1p contracted to 2s1p pattern {31/1}
 Group   4 Type Cl  : 10s7p1d contracted to 4s3p1d pattern {5311/511/1}

Atom   0C    basis set group =>   1
Atom   1Br   basis set group =>   2
Atom   2H    basis set group =>   3
Atom   3H    basis set group =>   3
Atom   4H    basis set group =>   3
Atom   5Cl   basis set group =>   4
---------------------------------
AUXILIARY/J BASIS SET INFORMATION
---------------------------------
There are 4 groups of distinct atoms

 Group   1 Type C   : 12s5p4d2f1g contracted to 6s4p3d1f1g pattern {711111/2111/211/2/1}
 Group   2 Type Br  : 19s5p5d3f1g contracted to 8s4p3d2f1g pattern {121111111/2111/311/21/1}
 Group   3 Type H   : 5s2p1d contracted to 3s1p1d pattern {311/2/1}
 Group   4 Type Cl  : 14s5p5d2f1g contracted to 8s4p3d1f1g pattern {71111111/2111/311/2/1}

Atom   0C    basis set group =>   1
Atom   1Br   basis set group =>   2
Atom   2H    basis set group =>   3
Atom   3H    basis set group =>   3
Atom   4H    basis set group =>   3
Atom   5Cl   basis set group =>   4
[1631719767.220205] [comp0806:80205:0]            sys.c:618  UCX  ERROR shmget(size=2097152 flags=0xfb0) for mm_recv_desc failed: Operation not permitted, please check shared memory limits by 'ipcs -l'
[1631719767.220236] [comp0806:80200:0]            sys.c:618  UCX  ERROR shmget(size=2097152 flags=0xfb0) for mm_recv_desc failed: Operation not permitted, please check shared memory limits by 'ipcs -l'
[1631719767.220338] [comp0806:80209:0]            sys.c:618  UCX  ERROR shmget(size=2097152 flags=0xfb0) for mm_recv_desc failed: Operation not permitted, please check shared memory limits by 'ipcs -l'
[1631719767.220375] [comp0806:80202:0]            sys.c:618  UCX  ERROR shmget(size=2097152 flags=0xfb0) for mm_recv_desc failed: Operation not permitted, please check shared memory limits by 'ipcs -l'
[1631719767.240960] [comp0806:80202:0]            sys.c:618  UCX  ERROR shmget(size=2097152 flags=0xb80) for ucp_am_bufs failed: Operation not permitted, please check shared memory limits by 'ipcs -l'
[1631719767.241090] [comp0806:80209:0]            sys.c:618  UCX  ERROR shmget(size=2097152 flags=0xb80) for ucp_am_bufs failed: Operation not permitted, please check shared memory limits by 'ipcs -l'
[1631719767.241750] [comp0806:80205:0]            sys.c:618  UCX  ERROR shmget(size=2097152 flags=0xb80) for ucp_am_bufs failed: Operation not permitted, please check shared memory limits by 'ipcs -l'
[1631719767.241905] [comp0806:80200:0]            sys.c:618  UCX  ERROR shmget(size=2097152 flags=0xb80) for ucp_am_bufs failed: Operation not permitted, please check shared memory limits by 'ipcs -l'


           ************************************************************
           *        Program running with 4 parallel MPI-processes     *
           *              working on a common directory               *
           ************************************************************
------------------------------------------------------------------------------
                           ORCA GTO INTEGRAL CALCULATION
                           -- RI-GTO INTEGRALS CHOSEN --
------------------------------------------------------------------------------

                         BASIS SET STATISTICS AND STARTUP INFO

Gaussian basis set:
 # of primitive gaussian shells          ...   75
 # of primitive gaussian functions       ...  155
 # of contracted shells                  ...   35
 # of contracted basis functions         ...   79
 Highest angular momentum                ...    2
 Maximum contraction depth               ...    6
Auxiliary gaussian basis set:
 # of primitive gaussian shells          ...  108
 # of primitive gaussian functions       ...  284
 # of contracted shells                  ...   65
 # of contracted aux-basis functions     ...  191
 Highest angular momentum                ...    4
 Maximum contraction depth               ...   12
Ratio of auxiliary to basis functions    ...  2.42
Integral package used                  ... LIBINT
 One Electron integrals                  ... done
 Ordering auxiliary basis shells         ... done
 Integral threshhold             Thresh  ...  2.500e-11
 Primitive cut-off               TCut    ...  2.500e-12
 Pre-screening matrix                    ... done
 Shell pair data                         ... 
 Ordering of the shell pairs             ... done (   0.000 sec) 567 of 630 pairs
 Determination of significant pairs      ... done (   0.000 sec)
 Creation of shell pair data             ... done (   0.000 sec)
 Storage of shell pair data              ... done (   0.017 sec)
 Shell pair data done in (   0.017 sec)
 Computing two index integrals           ... done
 Cholesky decomposition of the V-matrix  ... done


Timings:
 Total evaluation time                   ...   0.394 sec (  0.007 min)
 One electron matrix time                ...   0.025 sec (  0.000 min) =  6.3%
 Schwartz matrix evaluation time         ...   0.150 sec (  0.003 min) = 38.1%
 Two index repulsion integral time       ...   0.001 sec (  0.000 min) =  0.3%
 Cholesky decomposition of V             ...   0.172 sec (  0.003 min) = 43.6%
 Three index repulsion integral time     ...   0.000 sec (  0.000 min) =  0.0%

[1631719769.780864] [comp0806:80249:0]            sys.c:618  UCX  ERROR shmget(size=2097152 flags=0xfb0) for mm_recv_desc failed: Operation not permitted, please check shared memory limits by 'ipcs -l'
[1631719769.793858] [comp0806:80245:0]            sys.c:618  UCX  ERROR shmget(size=2097152 flags=0xfb0) for mm_recv_desc failed: Operation not permitted, please check shared memory limits by 'ipcs -l'
[1631719769.823314] [comp0806:80247:0]            sys.c:618  UCX  ERROR shmget(size=2097152 flags=0xfb0) for mm_recv_desc failed: Operation not permitted, please check shared memory limits by 'ipcs -l'
[1631719769.823547] [comp0806:80251:0]            sys.c:618  UCX  ERROR shmget(size=2097152 flags=0xfb0) for mm_recv_desc failed: Operation not permitted, please check shared memory limits by 'ipcs -l'
[1631719769.831550] [comp0806:80249:0]            sys.c:618  UCX  ERROR shmget(size=2097152 flags=0xb80) for ucp_am_bufs failed: Operation not permitted, please check shared memory limits by 'ipcs -l'
[1631719769.831573] [comp0806:80245:0]            sys.c:618  UCX  ERROR shmget(size=2097152 flags=0xb80) for ucp_am_bufs failed: Operation not permitted, please check shared memory limits by 'ipcs -l'


           ************************************************************
           *        Program running with 4 parallel MPI-processes     *
           *              working on a common directory               *
           ************************************************************
-------------------------------------------------------------------------------
                                 ORCA SCF
-------------------------------------------------------------------------------

------------
SCF SETTINGS
------------
Hamiltonian:
 Density Functional     Method          .... DFT(GTOs)
 Exchange Functional    Exchange        .... PBE
   PBE kappa parameter   XKappa         ....  0.804000
   PBE mue parameter    XMuePBE         ....  0.219520
 Correlation Functional Correlation     .... PBE
   PBE beta parameter  CBetaPBE         ....  0.066725
 LDA part of GGA corr.  LDAOpt          .... PW91-LDA
 Gradients option       PostSCFGGA      .... off
 Hybrid DFT is turned on
   Fraction HF Exchange ScalHFX         ....  0.250000
   Scaling of DF-GGA-X  ScalDFX         ....  0.750000
   Scaling of DF-GGA-C  ScalDFC         ....  1.000000
   Scaling of DF-LDA-C  ScalLDAC        ....  1.000000
   Perturbative correction              ....  0.000000
   Density functional embedding theory  .... OFF
   NL short-range parameter             ....  6.900000
 RI-approximation to the Coulomb term is turned on
   Number of auxiliary basis functions  .... 191
   RIJ-COSX (HFX calculated with COS-X)).... on


General Settings:
 Integral files         IntName         .... manual_reactants_341_opt
 Hartree-Fock type      HFTyp           .... RHF
 Total Charge           Charge          ....   -1
 Multiplicity           Mult            ....    1
 Number of Electrons    NEL             ....   62
 Basis Dimension        Dim             ....   79
 Nuclear Repulsion      ENuc            ....    174.0130166595 Eh

Convergence Acceleration:
 DIIS                   CNVDIIS         .... on
   Start iteration      DIISMaxIt       ....    12
   Startup error        DIISStart       ....  0.200000
   # of expansion vecs  DIISMaxEq       ....     5
   Bias factor          DIISBfac        ....   1.050
   Max. coefficient     DIISMaxC        ....  10.000
 Newton-Raphson         CNVNR           .... off
 SOSCF                  CNVSOSCF        .... on
   Start iteration      SOSCFMaxIt      ....   150
   Startup grad/error   SOSCFStart      ....  0.003300
 Level Shifting         CNVShift        .... on
   Level shift para.    LevelShift      ....    0.2500
   Turn off err/grad.   ShiftErr        ....    0.0010
 Zerner damping         CNVZerner       .... off
 Static damping         CNVDamp         .... on
   Fraction old density DampFac         ....    0.7000
   Max. Damping (<1)    DampMax         ....    0.9800
   Min. Damping (>=0)   DampMin         ....    0.0000
   Turn off err/grad.   DampErr         ....    0.1000
 Fernandez-Rico         CNVRico         .... off

SCF Procedure:
 Maximum # iterations   MaxIter         ....   250
 SCF integral mode      SCFMode         .... Direct
   Integral package                     .... LIBINT
 Reset frequency        DirectResetFreq ....    20
 Integral Threshold     Thresh          ....  2.500e-11 Eh
 Primitive CutOff       TCut            ....  2.500e-12 Eh

Convergence Tolerance:
 Convergence Check Mode ConvCheckMode   .... Total+1el-Energy
 Convergence forced     ConvForced      .... 0
 Energy Change          TolE            ....  1.000e-08 Eh
 1-El. energy change                    ....  1.000e-05 Eh
 Orbital Gradient       TolG            ....  1.000e-05
 Orbital Rotation angle TolX            ....  1.000e-05
 DIIS Error             TolErr          ....  5.000e-07


Diagonalization of the overlap matrix:
[1631719769.832370] [comp0806:80247:0]            sys.c:618  UCX  ERROR shmget(size=2097152 flags=0xb80) for ucp_am_bufs failed: Operation not permitted, please check shared memory limits by 'ipcs -l'
[1631719769.832369] [comp0806:80251:0]            sys.c:618  UCX  ERROR shmget(size=2097152 flags=0xb80) for ucp_am_bufs failed: Operation not permitted, please check shared memory limits by 'ipcs -l'
Smallest eigenvalue                        ... 9.595e-03
Time for diagonalization                   ...    0.161 sec
Threshold for overlap eigenvalues          ... 1.000e-08
Number of eigenvalues below threshold      ... 0
Time for construction of square roots      ...    0.001 sec
Total time needed                          ...    0.162 sec

-------------------
DFT GRID GENERATION
-------------------

General Integration Accuracy     IntAcc      ...  4.340
Radial Grid Type                 RadialGrid  ... Gauss-Chebyshev
Angular Grid (max. acc.)         AngularGrid ... Lebedev-110
Angular grid pruning method      GridPruning ... 3 (G Style)
Weight generation scheme         WeightScheme... Becke
Basis function cutoff            BFCut       ...    1.0000e-11
Integration weight cutoff        WCut        ...    1.0000e-14
Grids for H and He will be reduced by one unit

# of grid points (after initial pruning)     ...   8772 (   0.0 sec)
# of grid points (after weights+screening)   ...   8616 (   0.0 sec)
nearest neighbour list constructed           ...    0.0 sec
Grid point re-assignment to atoms done       ...    0.0 sec
Grid point division into batches done        ...    0.0 sec
Reduced shell lists constructed in    0.0 sec

Total number of grid points                  ...     8616
Total number of batches                      ...      139
Average number of points per batch           ...       61
Average number of grid points per atom       ...     1436
Average number of shells per batch           ...    23.64 (67.54%)
Average number of basis functions per batch  ...    53.92 (68.25%)
Average number of large shells per batch     ...    19.56 (82.73%)
Average number of large basis fcns per batch ...    44.33 (82.23%)
Maximum spatial batch extension              ...  25.60, 16.72, 14.09 au
Average spatial batch extension              ...   1.27,  1.09,  0.99 au

Time for grid setup =    0.054 sec

------------------------------
INITIAL GUESS: MODEL POTENTIAL
------------------------------
Loading Hartree-Fock densities                     ... done
Calculating cut-offs                               ... done
Setting up the integral package                    ... done
Initializing the effective Hamiltonian             ... done
Starting the Coulomb interaction                   ... done (   0.0 sec)
Reading the grid                                   ... done
Mapping shells                                     ... done
Starting the XC term evaluation                    ... done (   0.0 sec)
  promolecular density results
     # of electrons  =     60.998528654
     EX              =   -122.592099226
     EC              =     -2.644203017
     EX+EC           =   -125.236302243
Transforming the Hamiltonian                       ... done (   0.0 sec)
Diagonalizing the Hamiltonian                      ... done (   0.0 sec)
Back transforming the eigenvectors                 ... done (   0.0 sec)
Now organizing SCF variables                       ... done
                      ------------------
                      INITIAL GUESS DONE (   0.2 sec)
                      ------------------
--------------------
COSX GRID GENERATION
--------------------

General Integration Accuracy     IntAcc      ...  3.340
Radial Grid Type                 RadialGrid  ... Gauss-Chebyshev
Angular Grid (max. acc.)         AngularGrid ... Lebedev-50
Angular grid pruning method      GridPruning ... 3 (G Style)
Weight generation scheme         WeightScheme... Becke
Basis function cutoff            BFCut       ...    1.0000e-11
Integration weight cutoff        WCut        ...    1.0000e-14
Grids for H and He will be reduced by one unit

# of grid points (after initial pruning)     ...   3288 (   0.0 sec)
# of grid points (after weights+screening)   ...   3226 (   0.0 sec)
nearest neighbour list constructed           ...    0.0 sec
Grid point re-assignment to atoms done       ...    0.0 sec
Grid point division into batches done        ...    0.0 sec
Reduced shell lists constructed in    0.0 sec

Total number of grid points                  ...     3226
Total number of batches                      ...       53
Average number of points per batch           ...       60
Average number of grid points per atom       ...      538
Average number of shells per batch           ...    24.33 (69.52%)
Average number of basis functions per batch  ...    56.07 (70.97%)
Average number of large shells per batch     ...    21.13 (86.85%)
Average number of large basis fcns per batch ...    48.33 (86.21%)
Maximum spatial batch extension              ...  20.68, 21.12, 14.08 au
Average spatial batch extension              ...   1.96,  1.76,  1.56 au

Overlap Fitting                  UseSFitting ... on
Constructing numerical overlap ... done (      0.0 sec)
Inverting numerical overlap    ... done (      0.0 sec)
Obtaining analytic overlap     ... done (      0.0 sec)
Final contraction and storage  ... done (      0.0 sec)


General Integration Accuracy     IntAcc      ...  3.670
Radial Grid Type                 RadialGrid  ... Gauss-Chebyshev
Angular Grid (max. acc.)         AngularGrid ... Lebedev-50
Angular grid pruning method      GridPruning ... 3 (G Style)
Weight generation scheme         WeightScheme... Becke
Basis function cutoff            BFCut       ...    1.0000e-11
Integration weight cutoff        WCut        ...    1.0000e-14
Grids for H and He will be reduced by one unit

# of grid points (after initial pruning)     ...   4066 (   0.0 sec)
# of grid points (after weights+screening)   ...   3980 (   0.0 sec)
nearest neighbour list constructed           ...    0.0 sec
Grid point re-assignment to atoms done       ...    0.0 sec
Grid point division into batches done        ...    0.0 sec
Reduced shell lists constructed in    0.0 sec

Total number of grid points                  ...     3980
Total number of batches                      ...       66
Average number of points per batch           ...       60
Average number of grid points per atom       ...      663
Average number of shells per batch           ...    24.44 (69.84%)
Average number of basis functions per batch  ...    56.11 (71.03%)
Average number of large shells per batch     ...    20.67 (84.55%)
Average number of large basis fcns per batch ...    46.78 (83.37%)
Maximum spatial batch extension              ...  22.63, 22.48, 14.83 au
Average spatial batch extension              ...   1.73,  1.58,  1.36 au

Overlap Fitting                  UseSFitting ... on
Constructing numerical overlap ... done (      0.0 sec)
Inverting numerical overlap    ... done (      0.0 sec)
Obtaining analytic overlap     ... done (      0.0 sec)
Final contraction and storage  ... done (      0.0 sec)


General Integration Accuracy     IntAcc      ...  4.010
Radial Grid Type                 RadialGrid  ... Gauss-Chebyshev
Angular Grid (max. acc.)         AngularGrid ... Lebedev-110
Angular grid pruning method      GridPruning ... 3 (G Style)
Weight generation scheme         WeightScheme... Becke
Basis function cutoff            BFCut       ...    1.0000e-11
Integration weight cutoff        WCut        ...    1.0000e-14
Grids for H and He will be reduced by one unit

# of grid points (after initial pruning)     ...   7710 (   0.0 sec)
# of grid points (after weights+screening)   ...   7582 (   0.0 sec)
nearest neighbour list constructed           ...    0.0 sec
Grid point re-assignment to atoms done       ...    0.0 sec
Grid point division into batches done        ...    0.0 sec
Reduced shell lists constructed in    0.0 sec

Total number of grid points                  ...     7582
Total number of batches                      ...      121
Average number of points per batch           ...       62
Average number of grid points per atom       ...     1264
Average number of shells per batch           ...    23.44 (66.96%)
Average number of basis functions per batch  ...    53.75 (68.04%)
Average number of large shells per batch     ...    19.31 (82.40%)
Average number of large basis fcns per batch ...    43.81 (81.51%)
Maximum spatial batch extension              ...  23.21, 15.97, 13.47 au
Average spatial batch extension              ...   1.38,  1.16,  1.06 au

Overlap Fitting                  UseSFitting ... on
Constructing numerical overlap ... done (      0.0 sec)
Inverting numerical overlap    ... done (      0.0 sec)
Obtaining analytic overlap     ... done (      0.0 sec)
Final contraction and storage  ... done (      0.0 sec)

Time for X-Grid setup             =    0.120 sec

--------------------
CPCM SOLVATION MODEL
--------------------
CPCM parameters:
  Epsilon                                         ...      38.3000
  Refrac                                          ...       1.4300
  Rsolv                                           ...       1.3000
  Surface type                                    ...    GEPOL SES
  Epsilon function type                           ...         CPCM
Radii:
 Radius for C  used is    3.7795 Bohr (=   2.0000 Ang.)
 Radius for Br used is    4.0818 Bohr (=   2.1600 Ang.)
 Radius for H  used is    2.4566 Bohr (=   1.3000 Ang.)
 Radius for Cl used is    3.8739 Bohr (=   2.0500 Ang.)
Calculating surface                               ...        done! (  0.0s)
GEPOL surface points                              ...          303
GEPOL Volume                                      ...     691.8943
GEPOL Surface-area                                ...     448.1771
Calculating surface distance matrix               ...        done! (  0.0s)
Performing Cholesky decomposition & store         ...        done! (  0.0s)
Overall time for CPCM initialization              ...                 0.0s
--------------
SCF ITERATIONS
--------------
ITER       Energy         Delta-E        Max-DP      RMS-DP      [F,P]     Damp
               ***  Starting incremental Fock matrix formation  ***
  0  -3073.3503527485   0.000000000000 0.11140063  0.00332607  0.1532372 0.7000
  1  -3073.3861753574  -0.035822608862 0.07867276  0.00252432  0.0940834 0.7000
                               ***Turning on DIIS***
  2  -3073.4033860204  -0.017210663062 0.14340860  0.00499710  0.0505699 0.0000
  3  -3073.4296217530  -0.026235732629 0.04531591  0.00148497  0.0370812 0.0000
  4  -3073.4346265643  -0.005004811306 0.01667815  0.00047133  0.0088247 0.0000
                      *** Initiating the SOSCF procedure ***
                           *** Shutting down DIIS ***
                      *** Re-Reading the Fockian *** 
                      *** Removing any level shift *** 
ITER      Energy       Delta-E        Grad      Rot      Max-DP    RMS-DP
  5  -3073.43482425  -0.0001976894  0.000532  0.000532  0.001102  0.000069
               *** Restarting incremental Fock matrix formation ***
  6  -3073.43482938  -0.0000051233  0.000290  0.000521  0.001348  0.000060
  7  -3073.43482962  -0.0000002380  0.000271  0.000325  0.000556  0.000018
  8  -3073.43483040  -0.0000007888  0.000055  0.000050  0.000254  0.000008
  9  -3073.43483039   0.0000000120  0.000047  0.000023  0.000115  0.000004
                  ***Gradient check signals convergence***
              ***Rediagonalizing the Fockian in SOSCF/NRSCF***

               *****************************************************
               *                     SUCCESS                       *
               *           SCF CONVERGED AFTER  10 CYCLES          *
               *****************************************************

Setting up the final grid:

General Integration Accuracy     IntAcc      ...  4.670
Radial Grid Type                 RadialGrid  ... Gauss-Chebyshev
Angular Grid (max. acc.)         AngularGrid ... Lebedev-302
Angular grid pruning method      GridPruning ... 3 (G Style)
Weight generation scheme         WeightScheme... Becke
Basis function cutoff            BFCut       ...    1.0000e-11
Integration weight cutoff        WCut        ...    1.0000e-14
Grids for H and He will be reduced by one unit

# of grid points (after initial pruning)     ...  32748 (   0.0 sec)
# of grid points (after weights+screening)   ...  31983 (   0.0 sec)
nearest neighbour list constructed           ...    0.0 sec
Grid point re-assignment to atoms done       ...    0.0 sec
Grid point division into batches done        ...    0.1 sec
Reduced shell lists constructed in    0.2 sec

Total number of grid points                  ...    31983
Total number of batches                      ...      503
Average number of points per batch           ...       63
Average number of grid points per atom       ...     5330
Average number of shells per batch           ...    21.83 (62.36%)
Average number of basis functions per batch  ...    49.64 (62.83%)
Average number of large shells per batch     ...    17.81 (81.60%)
Average number of large basis fcns per batch ...    39.81 (80.20%)
Maximum spatial batch extension              ...  18.14, 16.08, 15.09 au
Average spatial batch extension              ...   0.84,  0.82,  0.75 au

Final grid set up in    0.2 sec
Final integration                            ... done (   0.0 sec)
Change in XC energy                          ...    -0.000142097
Integrated number of electrons               ...    61.999975267
Previous integrated no of electrons          ...    61.999858426
Old exchange energy                            =    -30.915227271 Eh
New exchange energy                            =    -30.914828198 Eh
Exchange energy change after final integration =      0.000399073 Eh
Total energy after final integration           =  -3073.434573447 Eh
Final COS-X integration done in                =     0.230 sec

----------------
TOTAL SCF ENERGY
----------------

Total Energy       :        -3073.43457345 Eh          -83632.40653 eV

Components:
Nuclear Repulsion  :          174.01301666 Eh            4735.13491 eV
Electronic Energy  :        -3247.44759011 Eh          -88367.54145 eV
One Electron Energy:        -4629.91846666 Eh         -125986.48651 eV
Two Electron Energy:         1382.47087655 Eh           37618.94506 eV
CPCM Dielectric    :           -0.10878695 Eh              -2.96024 eV

Virial components:
Potential Energy   :        -6143.12706544 Eh         -167162.98585 eV
Kinetic Energy     :         3069.69249200 Eh           83530.57932 eV
Virial Ratio       :            2.00121904


DFT components:
N(Alpha)           :       30.999987633523 electrons
N(Beta)            :       30.999987633523 electrons
N(Total)           :       61.999975267046 electrons
E(X)               :      -92.310970300338 Eh       
E(C)               :       -2.696260142677 Eh       
E(XC)              :      -95.007230443015 Eh       
DFET-embed. en.    :        0.000000000000 Eh       
CPCM Solvation Model Properties:
Surface-charge          :            0.98432579
Charge-correction       :           -0.00244519 Eh              -0.06654 eV
Free-energy (cav+disp)  :            0.00345794 Eh               0.09410 eV
Corrected G(solv)       :        -3073.43356070 Eh          -83632.37897 eV

---------------
SCF CONVERGENCE
---------------

  Last Energy change         ...   -3.0893e-08  Tolerance :   1.0000e-08
  Last MAX-Density change    ...    2.6645e-15  Tolerance :   1.0000e-07
  Last RMS-Density change    ...    1.1299e-16  Tolerance :   5.0000e-09
  Last Orbital Gradient      ...    1.0499e-06  Tolerance :   1.0000e-05
  Last Orbital Rotation      ...    1.1538e-06  Tolerance :   1.0000e-05

             **** THE GBW FILE WAS UPDATED (manual_reactants_341_opt.gbw) ****
             **** DENSITY FILE WAS UPDATED (manual_reactants_341_opt.scfp) ****
             **** ENERGY FILE WAS UPDATED (manual_reactants_341_opt.en.tmp) ****
             **** THE GBW FILE WAS UPDATED (manual_reactants_341_opt.gbw) ****
             **** DENSITY FILE WAS UPDATED (manual_reactants_341_opt.scfp) ****
----------------
ORBITAL ENERGIES
----------------

  NO   OCC          E(Eh)            E(eV) 
   0   2.0000    -483.175555    -13147.8753 
   1   2.0000    -101.518069     -2762.4471 
   2   2.0000     -62.611999     -1703.7591 
   3   2.0000     -56.401192     -1534.7545 
   4   2.0000     -56.398841     -1534.6905 
   5   2.0000     -56.398829     -1534.6902 
   6   2.0000     -10.263708      -279.2897 
   7   2.0000      -9.365324      -254.8434 
   8   2.0000      -8.757442      -238.3021 
   9   2.0000      -7.101251      -193.2349 
  10   2.0000      -7.100942      -193.2265 
  11   2.0000      -7.100901      -193.2253 
  12   2.0000      -6.571933      -178.8314 
  13   2.0000      -6.559486      -178.4927 
  14   2.0000      -6.559443      -178.4915 
  15   2.0000      -2.657384       -72.3111 
  16   2.0000      -2.654034       -72.2199 
  17   2.0000      -2.653983       -72.2185 
  18   2.0000      -2.643867       -71.9433 
  19   2.0000      -2.643837       -71.9425 
  20   2.0000      -0.813331       -22.1319 
  21   2.0000      -0.671499       -18.2724 
  22   2.0000      -0.661731       -18.0066 
  23   2.0000      -0.434784       -11.8311 
  24   2.0000      -0.429856       -11.6970 
  25   2.0000      -0.389429       -10.5969 
  26   2.0000      -0.284625        -7.7450 
  27   2.0000      -0.284336        -7.7372 
  28   2.0000      -0.212660        -5.7868 
  29   2.0000      -0.211887        -5.7657 
  30   2.0000      -0.210310        -5.7228 
  31   0.0000       0.027621         0.7516 
  32   0.0000       0.111192         3.0257 
  33   0.0000       0.149640         4.0719 
  34   0.0000       0.173926         4.7328 
  35   0.0000       0.354317         9.6415 
  36   0.0000       0.406205        11.0534 
  37   0.0000       0.407574        11.0906 
  38   0.0000       0.446624        12.1533 
  39   0.0000       0.544742        14.8232 
  40   0.0000       0.545621        14.8471 
  41   0.0000       0.586510        15.9597 
  42   0.0000       0.603849        16.4316 
  43   0.0000       0.604855        16.4589 
  44   0.0000       0.622598        16.9418 
  45   0.0000       0.673850        18.3364 
  46   0.0000       0.687426        18.7058 
  47   0.0000       0.694985        18.9115 
  48   0.0000       0.701987        19.1020 
  49   0.0000       0.734471        19.9860 
  50   0.0000       0.790260        21.5041 
  51   0.0000       0.924219        25.1493 
  52   0.0000       0.924459        25.1558 
  53   0.0000       0.925351        25.1801 
  54   0.0000       0.928656        25.2700 
  55   0.0000       0.943008        25.6606 
  56   0.0000       0.995342        27.0846 
  57   0.0000       1.010120        27.4868 
  58   0.0000       1.046532        28.4776 
  59   0.0000       1.098692        29.8969 
  60   0.0000       1.247930        33.9579 
  61   0.0000       1.279459        34.8158 
  62   0.0000       1.532609        41.7044 
  63   0.0000       1.737863        47.2897 
  64   0.0000       1.745477        47.4969 
  65   0.0000       1.848480        50.2997 
  66   0.0000       1.966037        53.4986 
  67   0.0000       1.974646        53.7328 
  68   0.0000       2.185160        59.4612 
  69   0.0000       2.425695        66.0065 
  70   0.0000       2.436221        66.2930 
  71   0.0000       2.711403        73.7810 
  72   0.0000       2.907389        79.1141 
  73   0.0000       2.923903        79.5635 
  74   0.0000       3.467867        94.3655 
  75   0.0000       3.468493        94.3825 
  76   0.0000       3.550741        96.6206 
  77   0.0000       3.554130        96.7128 
  78   0.0000       3.776579       102.7659 

                    ********************************
                    * MULLIKEN POPULATION ANALYSIS *
                    ********************************

-----------------------
MULLIKEN ATOMIC CHARGES
-----------------------
   0 C :   -0.125898
   1 Br:   -0.240381
   2 H :    0.104194
   3 H :    0.071932
   4 H :    0.102084
   5 Cl:   -0.911931
Sum of atomic charges:   -1.0000000

--------------------------------
MULLIKEN REDUCED ORBITAL CHARGES
--------------------------------
  0 C s       :     3.142110  s :     3.142110
      pz      :     0.784783  p :     2.957441
      px      :     1.116313
      py      :     1.056345
      dz2     :     0.007420  d :     0.026346
      dxz     :     0.004738
      dyz     :     0.004954
      dx2y2   :     0.004682
      dxy     :     0.004552
  1 Brs       :     7.971711  s :     7.971711
      pz      :     5.299530  p :    17.221781
      px      :     5.988603
      py      :     5.933648
      dz2     :     2.022868  d :    10.046889
      dxz     :     2.009548
      dyz     :     2.012748
      dx2y2   :     2.001016
      dxy     :     2.000709
  2 H s       :     0.871562  s :     0.871562
      pz      :     0.006744  p :     0.024244
      px      :     0.007967
      py      :     0.009532
  3 H s       :     0.901419  s :     0.901419
      pz      :     0.006318  p :     0.026650
      px      :     0.015796
      py      :     0.004537
  4 H s       :     0.873748  s :     0.873748
      pz      :     0.003580  p :     0.024168
      px      :     0.006724
      py      :     0.013863
  5 Cls       :     5.994970  s :     5.994970
      pz      :     3.935170  p :    11.916758
      px      :     3.984768
      py      :     3.996819
      dz2     :     0.000076  d :     0.000203
      dxz     :     0.000100
      dyz     :     0.000013
      dx2y2   :     0.000009
      dxy     :     0.000006


                     *******************************
                     * LOEWDIN POPULATION ANALYSIS *
                     *******************************

----------------------
LOEWDIN ATOMIC CHARGES
----------------------
   0 C :   -0.120860
   1 Br:   -0.048106
   2 H :    0.039179
   3 H :    0.006912
   4 H :    0.039383
   5 Cl:   -0.916509

-------------------------------
LOEWDIN REDUCED ORBITAL CHARGES
-------------------------------
  0 C s       :     2.921187  s :     2.921187
      pz      :     0.902676  p :     3.135572
      px      :     1.137025
      py      :     1.095870
      dz2     :     0.017546  d :     0.064101
      dxz     :     0.011388
      dyz     :     0.011844
      dx2y2   :     0.012301
      dxy     :     0.011023
  1 Brs       :     7.823487  s :     7.823487
      pz      :     5.289421  p :    17.167905
      px      :     5.965990
      py      :     5.912495
      dz2     :     2.028751  d :    10.056714
      dxz     :     2.011118
      dyz     :     2.014897
      dx2y2   :     2.001115
      dxy     :     2.000833
  2 H s       :     0.889911  s :     0.889911
      pz      :     0.021291  p :     0.070910
      px      :     0.022843
      py      :     0.026775
  3 H s       :     0.911816  s :     0.911816
      pz      :     0.019414  p :     0.081271
      px      :     0.049190
      py      :     0.012668
  4 H s       :     0.890092  s :     0.890092
      pz      :     0.010849  p :     0.070525
      px      :     0.019242
      py      :     0.040434
  5 Cls       :     5.991441  s :     5.991441
      pz      :     3.944974  p :    11.924871
      px      :     3.982638
      py      :     3.997259
      dz2     :     0.000082  d :     0.000197
      dxz     :     0.000090
      dyz     :     0.000013
      dx2y2   :     0.000007
      dxy     :     0.000006


                      *****************************
                      * MAYER POPULATION ANALYSIS *
                      *****************************

  NA   - Mulliken gross atomic population
  ZA   - Total nuclear charge
  QA   - Mulliken gross atomic charge
  VA   - Mayer's total valence
  BVA  - Mayer's bonded valence
  FA   - Mayer's free valence

  ATOM       NA         ZA         QA         VA         BVA        FA
  0 C      6.1259     6.0000    -0.1259     3.8172     3.8172     0.0000
  1 Br    35.2404    35.0000    -0.2404     0.9849     0.9849    -0.0000
  2 H      0.8958     1.0000     0.1042     0.9802     0.9802     0.0000
  3 H      0.9281     1.0000     0.0719     1.0972     1.0972     0.0000
  4 H      0.8979     1.0000     0.1021     0.9787     0.9787     0.0000
  5 Cl    17.9119    17.0000    -0.9119     0.1715     0.1715    -0.0000

  Mayer bond orders larger than 0.100000
B(  0-C ,  1-Br) :   0.9568 B(  0-C ,  2-H ) :   0.9703 B(  0-C ,  3-H ) :   0.9309 
B(  0-C ,  4-H ) :   0.9704 B(  3-H ,  5-Cl) :   0.1613 


------------------
HIRSHFELD ANALYSIS
------------------

Total integrated alpha density =     30.999929213
Total integrated beta density  =     30.999929213

  ATOM     CHARGE      SPIN    
   0 C   -0.035067    0.000000
   1 Br  -0.167616    0.000000
   2 H    0.046761    0.000000
   3 H    0.017501    0.000000
   4 H    0.046807    0.000000
   5 Cl  -0.908245    0.000000

  TOTAL  -0.999858    0.000000

-------
TIMINGS
-------

Total SCF time: 0 days 0 hours 0 min 5 sec 

Total time                  ....       5.423 sec
Sum of individual times     ....       5.144 sec  ( 94.9%)

Fock matrix formation       ....       4.635 sec  ( 85.5%)
  Split-RI-J                ....       0.993 sec  ( 21.4% of F)
  Chain of spheres X        ....       1.422 sec  ( 30.7% of F)
  COS-X 1 center corr.      ....       0.000 sec  (  0.0% of F)
  XC integration            ....       0.161 sec  (  3.5% of F)
    Basis function eval.    ....       0.060 sec  ( 37.6% of XC)
    Density eval.           ....       0.024 sec  ( 14.8% of XC)
    XC-Functional eval.     ....       0.024 sec  ( 15.2% of XC)
    XC-Potential eval.      ....       0.030 sec  ( 18.6% of XC)
Diagonalization             ....       0.005 sec  (  0.1%)
Density matrix formation    ....       0.001 sec  (  0.0%)
Population analysis         ....       0.012 sec  (  0.2%)
Initial guess               ....       0.134 sec  (  2.5%)
Orbital Transformation      ....       0.000 sec  (  0.0%)
Orbital Orthonormalization  ....       0.000 sec  (  0.0%)
DIIS solution               ....       0.002 sec  (  0.0%)
SOSCF solution              ....       0.002 sec  (  0.0%)
Grid generation             ....       0.353 sec  (  6.5%)


-------------------------------------------------------------------------------
                          DFT DISPERSION CORRECTION                            
                                                                               
                              DFTD3 V3.1  Rev 1                                
                          USING Becke-Johnson damping                          
-------------------------------------------------------------------------------
The PBE0 functional is recognized
Active option DFTDOPT                   ...         4   

molecular C6(AA) [au] = 1032.602697 


            DFT-D V3
 parameters
 s6 scaling factor         :     1.0000 
 a1 scaling factor         :     0.4145 
 s8 scaling factor         :     1.2177 
 a2 scaling factor         :     4.8593 
 ad hoc parameters k1-k3   :    16.0000     1.3333    -4.0000 

 Edisp/kcal,au: -1.905202628299  -0.003036133324 
 E6   /kcal   :  -1.130594389 
 E8   /kcal   :  -0.774608239 
 % E8         :  40.657525213 

-------------------------   ----------------
Dispersion correction           -0.003036133
-------------------------   ----------------


-------------------------   --------------------
FINAL SINGLE POINT ENERGY     -3073.437609580645
-------------------------   --------------------

[1631719778.679900] [comp0806:80293:0]            sys.c:618  UCX  ERROR shmget(size=2097152 flags=0xfb0) for mm_recv_desc failed: Operation not permitted, please check shared memory limits by 'ipcs -l'
[1631719778.696531] [comp0806:80296:0]            sys.c:618  UCX  ERROR shmget(size=2097152 flags=0xfb0) for mm_recv_desc failed: Operation not permitted, please check shared memory limits by 'ipcs -l'
[1631719778.701305] [comp0806:80295:0]            sys.c:618  UCX  ERROR shmget(size=2097152 flags=0xfb0) for mm_recv_desc failed: Operation not permitted, please check shared memory limits by 'ipcs -l'
[1631719778.702106] [comp0806:80294:0]            sys.c:618  UCX  ERROR shmget(size=2097152 flags=0xfb0) for mm_recv_desc failed: Operation not permitted, please check shared memory limits by 'ipcs -l'
[1631719778.710558] [comp0806:80293:0]            sys.c:618  UCX  ERROR shmget(size=2097152 flags=0xb80) for ucp_am_bufs failed: Operation not permitted, please check shared memory limits by 'ipcs -l'
[1631719778.711427] [comp0806:80294:0]            sys.c:618  UCX  ERROR shmget(size=2097152 flags=0xb80) for ucp_am_bufs failed: Operation not permitted, please check shared memory limits by 'ipcs -l'
[1631719778.712440] [comp0806:80295:0]            sys.c:618  UCX  ERROR shmget(size=2097152 flags=0xb80) for ucp_am_bufs failed: Operation not permitted, please check shared memory limits by 'ipcs -l'


           ************************************************************
           *        Program running with 4 parallel MPI-processes     *
           *              working on a common directory               *
           ************************************************************
------------------------------------------------------------------------------
                         ORCA SCF GRADIENT CALCULATION
------------------------------------------------------------------------------

Gradient of the Kohn-Sham DFT energy:
Kohn-Sham wavefunction type      ... RKS
Hartree-Fock exchange scaling    ...    0.250
Number of operators              ...    1
Number of atoms                  ...    6
Basis set dimensions             ...   79
Integral neglect threshold       ... 2.5e-11
Integral primitive cutoff        ... 2.5e-12

Nuclear repulsion gradient       ... done
One Electron Gradient            ... done
Pre-screening matrix             ... done
RI-J gradient                    ... done
COSX-gradient                    ... done
Exchange-correlation gradient    ... done
Dispersion correction            ... done

------------------
CARTESIAN GRADIENT
------------------

   1   C   :   -0.000190165   -0.000027748   -0.000889261
   2   Br  :    0.000320537   -0.000595668   -0.000074790
   3   H   :    0.000386610   -0.000283410    0.000002248
   4   H   :   -0.000100939   -0.000324374   -0.000773577
   5   H   :    0.000368129   -0.000313548    0.000290178
   6   Cl  :    0.000207603   -0.000243621    0.000619948

Difference to translation invariance:
           :    0.0009917764   -0.0017883691   -0.0008252542

Norm of the cartesian gradient     ...    0.0017433642
RMS gradient                       ...    0.0004109149
MAX gradient                       ...    0.0008892613

-------
TIMINGS
-------

Total SCF gradient time            ...        1.187 sec

One electron gradient       ....       0.005 sec  (  0.4%)
Prescreening matrices       ....       0.090 sec  (  7.6%)
RI-J Coulomb gradient       ....       0.085 sec  (  7.2%)
COSX gradient               ....       0.210 sec  ( 17.7%)
XC gradient                 ....       0.126 sec  ( 10.6%)
CPCM gradient               ....       0.164 sec  ( 13.8%)
   A-Matrix (El+Nuc)        ....       0.006 sec  (  0.5%)
   Potential                ....       0.158 sec  ( 13.3%)
------------------------------------------------------------------------------
                         ORCA GEOMETRY RELAXATION STEP
------------------------------------------------------------------------------

Reading the OPT-File                    .... done
Getting information on internals        .... done
Copying old internal coords+grads       .... done
Making the new internal coordinates     .... (new redundants).... done
Validating the new internal coordinates .... (new redundants).... done
Calculating the B-matrix                .... done
Calculating the G,G- and P matrices     .... done
Transforming gradient to internals      .... done
Projecting the internal gradient        .... done
Number of atoms                         ....   6
Number of internal coordinates          ....  15
Current Energy                          .... -3073.437609581 Eh
Current gradient norm                   ....     0.001743364 Eh/bohr
Maximum allowed component of the step   ....  0.300
Current trust radius                    ....  0.300
Evaluating the initial hessian          ....  (Almloef) done
Projecting the Hessian                  .... done
Forming the augmented Hessian           .... done
Diagonalizing the augmented Hessian     .... done
Last element of RFO vector              ....  0.981174319
Lowest eigenvalues of augmented Hessian:
 -0.000133549  0.003278625  0.114166440  0.163177204  0.228267932
Length of the computed step             ....  0.196829648
The final length of the internal step   ....  0.196829648
Converting the step to cartesian space:
 Initial RMS(Int)=    0.0508211967
Transforming coordinates:
 Iter   0:  RMS(Cart)=    0.0411773737 RMS(Int)=    0.0508205825
 Iter   1:  RMS(Cart)=    0.0000287053 RMS(Int)=    0.0000261264
 Iter   2:  RMS(Cart)=    0.0000006594 RMS(Int)=    0.0000002881
 Iter   3:  RMS(Cart)=    0.0000000142 RMS(Int)=    0.0000000071
done
Storing new coordinates                 .... done

                                .--------------------.
          ----------------------|Geometry convergence|-------------------------
          Item                value                   Tolerance       Converged
          ---------------------------------------------------------------------
          RMS gradient        0.0003456365            0.0001000000      NO
          MAX gradient        0.0007403542            0.0003000000      NO
          RMS step            0.0508211967            0.0020000000      NO
          MAX step            0.1967487971            0.0040000000      NO
          ........................................................
          Max(Bonds)      0.1041      Max(Angles)    0.26
          Max(Dihed)        0.06      Max(Improp)    0.00
          ---------------------------------------------------------------------

The optimization has not yet converged - more geometry cycles are needed


    ---------------------------------------------------------------------------
                         Redundant Internal Coordinates
                            (Angstroem and degrees)

        Definition                    Value    dE/dq     Step     New-Value
    ----------------------------------------------------------------------------
     1. B(Br  1,C   0)                1.9425 -0.000160  0.0003    1.9428   
     2. B(H   2,C   0)                1.0945 -0.000008  0.0000    1.0945   
     3. B(H   3,C   0)                1.0969 -0.000104  0.0002    1.0971   
     4. B(H   4,C   0)                1.0961 -0.000042  0.0001    1.0961   
     5. B(Cl  5,H   3)                2.5999  0.000646 -0.1041    2.4958   
     6. A(Br  1,C   0,H   3)          110.31  0.000223   -0.05    110.26   
     7. A(Br  1,C   0,H   2)          107.74  0.000290   -0.06    107.68   
     8. A(Br  1,C   0,H   4)          107.81  0.000328   -0.07    107.74   
     9. A(H   2,C   0,H   4)          110.60  0.000100   -0.00    110.59   
    10. A(H   3,C   0,H   4)          110.31 -0.000538    0.11    110.42   
    11. A(H   2,C   0,H   3)          110.00 -0.000365    0.07    110.07   
    12. A(C   0,H   3,Cl  5)          135.86 -0.000740    0.26    136.12   
    13. D(Cl  5,H   3,C   0,H   2)     56.41 -0.000245    0.06     56.47   
    14. D(Cl  5,H   3,C   0,H   4)    -65.86  0.000231   -0.06    -65.92   
    15. D(Cl  5,H   3,C   0,Br  1)    175.13  0.000023   -0.01    175.12   
    ----------------------------------------------------------------------------

         *************************************************************
         *                GEOMETRY OPTIMIZATION CYCLE   2            *
         *************************************************************
---------------------------------
CARTESIAN COORDINATES (ANGSTROEM)
---------------------------------
  C     -0.556385   -0.211408    0.436561
  Br    -0.612997    0.319979   -1.431282
  H     -1.136281    0.520099    1.007989
  H      0.480515   -0.232358    0.794375
  H     -1.008039   -1.207136    0.514441
  Cl     1.621817   -0.616196    2.980446

----------------------------
CARTESIAN COORDINATES (A.U.)
----------------------------
  NO LB      ZA    FRAG     MASS         X           Y           Z
   0 C     6.0000    0    12.011   -1.051416   -0.399504    0.824980
   1 Br   35.0000    0    79.900   -1.158396    0.604672   -2.704732
   2 H     1.0000    0     1.008   -2.147260    0.982845    1.904822
   3 H     1.0000    0     1.008    0.908042   -0.439093    1.501152
   4 H     1.0000    0     1.008   -1.904918   -2.281156    0.972153
   5 Cl   17.0000    0    35.453    3.064791   -1.164441    5.632227

--------------------------------
INTERNAL COORDINATES (ANGSTROEM)
--------------------------------
 C      0   0   0     0.000000000000     0.00000000     0.00000000
 Br     1   0   0     1.942785301662     0.00000000     0.00000000
 H      1   2   0     1.094491485790   107.68051245     0.00000000
 H      1   2   3     1.097102002091   110.26286094   239.88717551
 H      1   2   3     1.096143154713   107.74397003   119.31416032
 Cl     4   1   2     2.495758292381   136.12186341   175.12499250

---------------------------
INTERNAL COORDINATES (A.U.)
---------------------------
 C      0   0   0     0.000000000000     0.00000000     0.00000000
 Br     1   0   0     3.671332157149     0.00000000     0.00000000
 H      1   2   0     2.068289164052   107.68051245     0.00000000
 H      1   2   3     2.073222324928   110.26286094   239.88717551
 H      1   2   3     2.071410365981   107.74397003   119.31416032
 Cl     4   1   2     4.716299669064   136.12186341   175.12499250

[1631719780.881719] [comp0806:80336:0]            sys.c:618  UCX  ERROR shmget(size=2097152 flags=0xfb0) for mm_recv_desc failed: Operation not permitted, please check shared memory limits by 'ipcs -l'
[1631719780.882127] [comp0806:80338:0]            sys.c:618  UCX  ERROR shmget(size=2097152 flags=0xfb0) for mm_recv_desc failed: Operation not permitted, please check shared memory limits by 'ipcs -l'
[1631719780.913190] [comp0806:80337:0]            sys.c:618  UCX  ERROR shmget(size=2097152 flags=0xfb0) for mm_recv_desc failed: Operation not permitted, please check shared memory limits by 'ipcs -l'
[1631719780.914199] [comp0806:80339:0]            sys.c:618  UCX  ERROR shmget(size=2097152 flags=0xfb0) for mm_recv_desc failed: Operation not permitted, please check shared memory limits by 'ipcs -l'
[1631719780.923863] [comp0806:80338:0]            sys.c:618  UCX  ERROR shmget(size=2097152 flags=0xb80) for ucp_am_bufs failed: Operation not permitted, please check shared memory limits by 'ipcs -l'
[1631719780.923865] [comp0806:80339:0]            sys.c:618  UCX  ERROR shmget(size=2097152 flags=0xb80) for ucp_am_bufs failed: Operation not permitted, please check shared memory limits by 'ipcs -l'
[1631719780.924661] [comp0806:80337:0]            sys.c:618  UCX  ERROR shmget(size=2097152 flags=0xb80) for ucp_am_bufs failed: Operation not permitted, please check shared memory limits by 'ipcs -l'
[1631719780.924757] [comp0806:80336:0]            sys.c:618  UCX  ERROR shmget(size=2097152 flags=0xb80) for ucp_am_bufs failed: Operation not permitted, please check shared memory limits by 'ipcs -l'


           ************************************************************
           *        Program running with 4 parallel MPI-processes     *
           *              working on a common directory               *
           ************************************************************
 One Electron integrals                  ... done
 Pre-screening matrix                    ... done
[1631719782.069038] [comp0806:80379:0]            sys.c:618  UCX  ERROR shmget(size=2097152 flags=0xfb0) for mm_recv_desc failed: Operation not permitted, please check shared memory limits by 'ipcs -l'
[1631719782.089038] [comp0806:80381:0]            sys.c:618  UCX  ERROR shmget(size=2097152 flags=0xfb0) for mm_recv_desc failed: Operation not permitted, please check shared memory limits by 'ipcs -l'
[1631719782.090769] [comp0806:80380:0]            sys.c:618  UCX  ERROR shmget(size=2097152 flags=0xfb0) for mm_recv_desc failed: Operation not permitted, please check shared memory limits by 'ipcs -l'
[1631719782.105076] [comp0806:80382:0]            sys.c:618  UCX  ERROR shmget(size=2097152 flags=0xfb0) for mm_recv_desc failed: Operation not permitted, please check shared memory limits by 'ipcs -l'
[1631719782.113057] [comp0806:80379:0]            sys.c:618  UCX  ERROR shmget(size=2097152 flags=0xb80) for ucp_am_bufs failed: Operation not permitted, please check shared memory limits by 'ipcs -l'
[1631719782.113824] [comp0806:80380:0]            sys.c:618  UCX  ERROR shmget(size=2097152 flags=0xb80) for ucp_am_bufs failed: Operation not permitted, please check shared memory limits by 'ipcs -l'


           ************************************************************
           *        Program running with 4 parallel MPI-processes     *
           *              working on a common directory               *
           ************************************************************
[1631719782.117480] [comp0806:80381:0]            sys.c:618  UCX  ERROR shmget(size=2097152 flags=0xb80) for ucp_am_bufs failed: Operation not permitted, please check shared memory limits by 'ipcs -l'
[1631719782.117923] [comp0806:80382:0]            sys.c:618  UCX  ERROR shmget(size=2097152 flags=0xb80) for ucp_am_bufs failed: Operation not permitted, please check shared memory limits by 'ipcs -l'

Diagonalization of the overlap matrix:
Smallest eigenvalue                        ... 9.433e-03
Time for diagonalization                   ...    0.003 sec
Threshold for overlap eigenvalues          ... 1.000e-08
Number of eigenvalues below threshold      ... 0
Time for construction of square roots      ...    0.001 sec
Total time needed                          ...    0.004 sec

-------------------
DFT GRID GENERATION
-------------------

General Integration Accuracy     IntAcc      ...  4.340
Radial Grid Type                 RadialGrid  ... Gauss-Chebyshev
Angular Grid (max. acc.)         AngularGrid ... Lebedev-110
Angular grid pruning method      GridPruning ... 3 (G Style)
Weight generation scheme         WeightScheme... Becke
Basis function cutoff            BFCut       ...    1.0000e-11
Integration weight cutoff        WCut        ...    1.0000e-14
Grids for H and He will be reduced by one unit

# of grid points (after initial pruning)     ...   8772 (   0.0 sec)
# of grid points (after weights+screening)   ...   8617 (   0.0 sec)
nearest neighbour list constructed           ...    0.0 sec
Grid point re-assignment to atoms done       ...    0.0 sec
Grid point division into batches done        ...    0.0 sec
Reduced shell lists constructed in    0.0 sec

Total number of grid points                  ...     8617
Total number of batches                      ...      139
Average number of points per batch           ...       61
Average number of grid points per atom       ...     1436
Average number of shells per batch           ...    23.75 (67.86%)
Average number of basis functions per batch  ...    54.25 (68.67%)
Average number of large shells per batch     ...    19.58 (82.46%)
Average number of large basis fcns per batch ...    44.25 (81.57%)
Maximum spatial batch extension              ...  25.60, 16.72, 13.95 au
Average spatial batch extension              ...   1.28,  1.09,  1.00 au

Time for grid setup =    0.048 sec

--------------------
COSX GRID GENERATION
--------------------

General Integration Accuracy     IntAcc      ...  3.340
Radial Grid Type                 RadialGrid  ... Gauss-Chebyshev
Angular Grid (max. acc.)         AngularGrid ... Lebedev-50
Angular grid pruning method      GridPruning ... 3 (G Style)
Weight generation scheme         WeightScheme... Becke
Basis function cutoff            BFCut       ...    1.0000e-11
Integration weight cutoff        WCut        ...    1.0000e-14
Grids for H and He will be reduced by one unit

# of grid points (after initial pruning)     ...   3288 (   0.0 sec)
# of grid points (after weights+screening)   ...   3223 (   0.0 sec)
nearest neighbour list constructed           ...    0.0 sec
Grid point re-assignment to atoms done       ...    0.0 sec
Grid point division into batches done        ...    0.0 sec
Reduced shell lists constructed in    0.0 sec

Total number of grid points                  ...     3223
Total number of batches                      ...       53
Average number of points per batch           ...       60
Average number of grid points per atom       ...      537
Average number of shells per batch           ...    24.40 (69.71%)
Average number of basis functions per batch  ...    56.27 (71.22%)
Average number of large shells per batch     ...    21.20 (86.89%)
Average number of large basis fcns per batch ...    48.67 (86.49%)
Maximum spatial batch extension              ...  20.68, 21.12, 14.08 au
Average spatial batch extension              ...   1.96,  1.76,  1.56 au

Overlap Fitting                  UseSFitting ... on
Constructing numerical overlap ... done (      0.0 sec)
Inverting numerical overlap    ... done (      0.0 sec)
Obtaining analytic overlap     ... done (      0.0 sec)
Final contraction and storage  ... done (      0.0 sec)


General Integration Accuracy     IntAcc      ...  3.670
Radial Grid Type                 RadialGrid  ... Gauss-Chebyshev
Angular Grid (max. acc.)         AngularGrid ... Lebedev-50
Angular grid pruning method      GridPruning ... 3 (G Style)
Weight generation scheme         WeightScheme... Becke
Basis function cutoff            BFCut       ...    1.0000e-11
Integration weight cutoff        WCut        ...    1.0000e-14
Grids for H and He will be reduced by one unit

# of grid points (after initial pruning)     ...   4066 (   0.0 sec)
# of grid points (after weights+screening)   ...   3981 (   0.0 sec)
nearest neighbour list constructed           ...    0.0 sec
Grid point re-assignment to atoms done       ...    0.0 sec
Grid point division into batches done        ...    0.0 sec
Reduced shell lists constructed in    0.0 sec

Total number of grid points                  ...     3981
Total number of batches                      ...       66
Average number of points per batch           ...       60
Average number of grid points per atom       ...      664
Average number of shells per batch           ...    24.50 (70.00%)
Average number of basis functions per batch  ...    56.28 (71.24%)
Average number of large shells per batch     ...    20.72 (84.58%)
Average number of large basis fcns per batch ...    46.83 (83.22%)
Maximum spatial batch extension              ...  22.63, 22.48, 14.83 au
Average spatial batch extension              ...   1.75,  1.60,  1.37 au

Overlap Fitting                  UseSFitting ... on
Constructing numerical overlap ... done (      0.0 sec)
Inverting numerical overlap    ... done (      0.0 sec)
Obtaining analytic overlap     ... done (      0.0 sec)
Final contraction and storage  ... done (      0.0 sec)


General Integration Accuracy     IntAcc      ...  4.010
Radial Grid Type                 RadialGrid  ... Gauss-Chebyshev
Angular Grid (max. acc.)         AngularGrid ... Lebedev-110
Angular grid pruning method      GridPruning ... 3 (G Style)
Weight generation scheme         WeightScheme... Becke
Basis function cutoff            BFCut       ...    1.0000e-11
Integration weight cutoff        WCut        ...    1.0000e-14
Grids for H and He will be reduced by one unit

# of grid points (after initial pruning)     ...   7710 (   0.0 sec)
# of grid points (after weights+screening)   ...   7580 (   0.0 sec)
nearest neighbour list constructed           ...    0.0 sec
Grid point re-assignment to atoms done       ...    0.0 sec
Grid point division into batches done        ...    0.0 sec
Reduced shell lists constructed in    0.0 sec

Total number of grid points                  ...     7580
Total number of batches                      ...      121
Average number of points per batch           ...       62
Average number of grid points per atom       ...     1263
Average number of shells per batch           ...    23.47 (67.05%)
Average number of basis functions per batch  ...    53.84 (68.16%)
Average number of large shells per batch     ...    19.41 (82.69%)
Average number of large basis fcns per batch ...    43.91 (81.54%)
Maximum spatial batch extension              ...  23.18, 16.58, 13.47 au
Average spatial batch extension              ...   1.39,  1.18,  1.05 au

Overlap Fitting                  UseSFitting ... on
Constructing numerical overlap ... done (      0.0 sec)
Inverting numerical overlap    ... done (      0.0 sec)
Obtaining analytic overlap     ... done (      0.0 sec)
Final contraction and storage  ... done (      0.0 sec)

Time for X-Grid setup             =    0.156 sec

--------------------
CPCM SOLVATION MODEL
--------------------
CPCM parameters:
  Epsilon                                         ...      38.3000
  Refrac                                          ...       1.4300
  Rsolv                                           ...       1.3000
  Surface type                                    ...    GEPOL SES
  Epsilon function type                           ...         CPCM
Radii:
 Radius for C  used is    3.7795 Bohr (=   2.0000 Ang.)
 Radius for Br used is    4.0818 Bohr (=   2.1600 Ang.)
 Radius for H  used is    2.4566 Bohr (=   1.3000 Ang.)
 Radius for Cl used is    3.8739 Bohr (=   2.0500 Ang.)
Calculating surface                               ...        done! (  0.0s)
GEPOL surface points                              ...          303
GEPOL Volume                                      ...     688.0487
GEPOL Surface-area                                ...     444.4202
Calculating surface distance matrix               ...        done! (  0.0s)
Performing Cholesky decomposition & store         ...        done! (  0.0s)
Overall time for CPCM initialization              ...                 0.0s
--------------
SCF ITERATIONS
--------------
ITER       Energy         Delta-E        Max-DP      RMS-DP      [F,P]     Damp
               ***  Starting incremental Fock matrix formation  ***
                      *** Initiating the SOSCF procedure ***
                      *** Re-Reading the Fockian *** 
                      *** Removing any level shift *** 
ITER      Energy       Delta-E        Grad      Rot      Max-DP    RMS-DP
  0  -3073.43460926 -3073.4346092552  0.002838  0.002838  0.008958  0.000291
               *** Restarting incremental Fock matrix formation ***
  1  -3073.43469880  -0.0000895406  0.000684  0.002227  0.004605  0.000191
  2  -3073.43471037  -0.0000115734  0.000308  0.000691  0.001261  0.000057
  3  -3073.43471083  -0.0000004648  0.000290  0.000354  0.000667  0.000027
  4  -3073.43471157  -0.0000007373  0.000048  0.000041  0.000208  0.000006
  5  -3073.43471159  -0.0000000138  0.000035  0.000017  0.000089  0.000003
                  ***Gradient check signals convergence***
              ***Rediagonalizing the Fockian in SOSCF/NRSCF***

               *****************************************************
               *                     SUCCESS                       *
               *           SCF CONVERGED AFTER   6 CYCLES          *
               *****************************************************

Setting up the final grid:

General Integration Accuracy     IntAcc      ...  4.670
Radial Grid Type                 RadialGrid  ... Gauss-Chebyshev
Angular Grid (max. acc.)         AngularGrid ... Lebedev-302
Angular grid pruning method      GridPruning ... 3 (G Style)
Weight generation scheme         WeightScheme... Becke
Basis function cutoff            BFCut       ...    1.0000e-11
Integration weight cutoff        WCut        ...    1.0000e-14
Grids for H and He will be reduced by one unit

# of grid points (after initial pruning)     ...  32748 (   0.0 sec)
# of grid points (after weights+screening)   ...  31976 (   0.0 sec)
nearest neighbour list constructed           ...    0.0 sec
Grid point re-assignment to atoms done       ...    0.0 sec
Grid point division into batches done        ...    0.1 sec
Reduced shell lists constructed in    0.2 sec

Total number of grid points                  ...    31976
Total number of batches                      ...      503
Average number of points per batch           ...       63
Average number of grid points per atom       ...     5329
Average number of shells per batch           ...    21.86 (62.45%)
Average number of basis functions per batch  ...    49.78 (63.01%)
Average number of large shells per batch     ...    17.81 (81.48%)
Average number of large basis fcns per batch ...    39.69 (79.72%)
Maximum spatial batch extension              ...  18.14, 16.08, 15.86 au
Average spatial batch extension              ...   0.83,  0.81,  0.74 au

Final grid set up in    0.2 sec
Final integration                            ... done (   0.0 sec)
Change in XC energy                          ...    -0.000162802
Integrated number of electrons               ...    61.999973139
Previous integrated no of electrons          ...    61.999711253
Old exchange energy                            =    -30.915400667 Eh
New exchange energy                            =    -30.915000390 Eh
Exchange energy change after final integration =      0.000400277 Eh
Total energy after final integration           =  -3073.434474101 Eh
Final COS-X integration done in                =     0.296 sec
Total Energy       :        -3073.43447410 Eh          -83632.40383 eV
  Last Energy change         ...    8.8321e-09  Tolerance :   1.0000e-08
  Last MAX-Density change    ...    5.7732e-15  Tolerance :   1.0000e-07
             **** THE GBW FILE WAS UPDATED (manual_reactants_341_opt.gbw) ****
             **** DENSITY FILE WAS UPDATED (manual_reactants_341_opt.scfp) ****
             **** ENERGY FILE WAS UPDATED (manual_reactants_341_opt.en.tmp) ****
             **** THE GBW FILE WAS UPDATED (manual_reactants_341_opt.gbw) ****
             **** DENSITY FILE WAS UPDATED (manual_reactants_341_opt.scfp) ****
Total SCF time: 0 days 0 hours 0 min 4 sec 


-------------------------------------------------------------------------------
                          DFT DISPERSION CORRECTION                            
                                                                               
                              DFTD3 V3.1  Rev 1                                
                          USING Becke-Johnson damping                          
-------------------------------------------------------------------------------
-------------------------   ----------------
Dispersion correction           -0.003106997
-------------------------   ----------------


-------------------------   --------------------
FINAL SINGLE POINT ENERGY     -3073.437581097526
-------------------------   --------------------

[1631719787.308477] [comp0806:80423:0]            sys.c:618  UCX  ERROR shmget(size=2097152 flags=0xfb0) for mm_recv_desc failed: Operation not permitted, please check shared memory limits by 'ipcs -l'
[1631719787.310783] [comp0806:80425:0]            sys.c:618  UCX  ERROR shmget(size=2097152 flags=0xfb0) for mm_recv_desc failed: Operation not permitted, please check shared memory limits by 'ipcs -l'
[1631719787.318637] [comp0806:80426:0]            sys.c:618  UCX  ERROR shmget(size=2097152 flags=0xfb0) for mm_recv_desc failed: Operation not permitted, please check shared memory limits by 'ipcs -l'
[1631719787.331506] [comp0806:80424:0]            sys.c:618  UCX  ERROR shmget(size=2097152 flags=0xfb0) for mm_recv_desc failed: Operation not permitted, please check shared memory limits by 'ipcs -l'
[1631719787.339594] [comp0806:80425:0]            sys.c:618  UCX  ERROR shmget(size=2097152 flags=0xb80) for ucp_am_bufs failed: Operation not permitted, please check shared memory limits by 'ipcs -l'
[1631719787.339986] [comp0806:80423:0]            sys.c:618  UCX  ERROR shmget(size=2097152 flags=0xb80) for ucp_am_bufs failed: Operation not permitted, please check shared memory limits by 'ipcs -l'
[1631719787.340661] [comp0806:80424:0]            sys.c:618  UCX  ERROR shmget(size=2097152 flags=0xb80) for ucp_am_bufs failed: Operation not permitted, please check shared memory limits by 'ipcs -l'


           ************************************************************
           *        Program running with 4 parallel MPI-processes     *
           *              working on a common directory               *
[...]

Setting up the final grid:

General Integration Accuracy     IntAcc      ...  4.670
Radial Grid Type                 RadialGrid  ... Gauss-Chebyshev
Angular Grid (max. acc.)         AngularGrid ... Lebedev-302
Angular grid pruning method      GridPruning ... 3 (G Style)
Weight generation scheme         WeightScheme... Becke
Basis function cutoff            BFCut       ...    1.0000e-11
Integration weight cutoff        WCut        ...    1.0000e-14
Grids for H and He will be reduced by one unit

# of grid points (after initial pruning)     ...  32748 (   0.0 sec)
# of grid points (after weights+screening)   ...  31989 (   0.0 sec)
nearest neighbour list constructed           ...    0.0 sec
Grid point re-assignment to atoms done       ...    0.0 sec
Grid point division into batches done        ...    0.2 sec
Reduced shell lists constructed in    0.2 sec

Total number of grid points                  ...    31989
Total number of batches                      ...      503
Average number of points per batch           ...       63
Average number of grid points per atom       ...     5332
Average number of shells per batch           ...    22.75 (64.99%)
Average number of basis functions per batch  ...    51.87 (65.65%)
Average number of large shells per batch     ...    18.57 (81.65%)
Average number of large basis fcns per batch ...    41.36 (79.75%)
Maximum spatial batch extension              ...  16.76, 16.50, 15.13 au
Average spatial batch extension              ...   0.78,  0.76,  0.71 au

Final grid set up in    0.2 sec
Final integration                            ... done (   0.0 sec)
Change in XC energy                          ...     0.000217786
Integrated number of electrons               ...    61.999972911
Previous integrated no of electrons          ...    62.004183267
Old exchange energy                            =    -30.914891466 Eh
New exchange energy                            =    -30.914459109 Eh
Exchange energy change after final integration =      0.000432357 Eh
Total energy after final integration           =  -3073.435504929 Eh
Final COS-X integration done in                =     0.236 sec

----------------
TOTAL SCF ENERGY
----------------

Total Energy       :        -3073.43550493 Eh          -83632.43188 eV

Components:
Nuclear Repulsion  :          187.49206794 Eh            5101.91855 eV
Electronic Energy  :        -3260.92757287 Eh          -88734.35043 eV
One Electron Energy:        -4657.68671960 Eh         -126742.09908 eV
Two Electron Energy:         1396.75914673 Eh           38007.74866 eV
CPCM Dielectric    :           -0.11314145 Eh              -3.07874 eV

Virial components:
Potential Energy   :        -6143.11339061 Eh         -167162.61374 eV
Kinetic Energy     :         3069.67788568 Eh           83530.18186 eV
Virial Ratio       :            2.00122411


DFT components:
N(Alpha)           :       30.999986455477 electrons
N(Beta)            :       30.999986455477 electrons
N(Total)           :       61.999972910954 electrons
E(X)               :      -92.309420272725 Eh       
E(C)               :       -2.697227926541 Eh       
E(XC)              :      -95.006648199265 Eh       
DFET-embed. en.    :        0.000000000000 Eh       
CPCM Solvation Model Properties:
Surface-charge          :            0.98507657
Charge-correction       :           -0.00225853 Eh              -0.06146 eV
Free-energy (cav+disp)  :            0.00343941 Eh               0.09359 eV
Corrected G(solv)       :        -3073.43432405 Eh          -83632.39975 eV

---------------
SCF CONVERGENCE
---------------

  Last Energy change         ...    8.8958e-09  Tolerance :   1.0000e-08
  Last MAX-Density change    ...    3.5527e-15  Tolerance :   1.0000e-07
  Last RMS-Density change    ...    1.1220e-16  Tolerance :   5.0000e-09
  Last Orbital Gradient      ...    1.7735e-06  Tolerance :   1.0000e-05
  Last Orbital Rotation      ...    2.8490e-06  Tolerance :   1.0000e-05

             **** THE GBW FILE WAS UPDATED (manual_reactants_341_opt.gbw) ****
             **** DENSITY FILE WAS UPDATED (manual_reactants_341_opt.scfp) ****
             **** ENERGY FILE WAS UPDATED (manual_reactants_341_opt.en.tmp) ****
             **** THE GBW FILE WAS UPDATED (manual_reactants_341_opt.gbw) ****
             **** DENSITY FILE WAS UPDATED (manual_reactants_341_opt.scfp) ****
----------------
ORBITAL ENERGIES
----------------

  NO   OCC          E(Eh)            E(eV) 
   0   2.0000    -483.173407    -13147.8168 
   1   2.0000    -101.518987     -2762.4721 
   2   2.0000     -62.609742     -1703.6977 
   3   2.0000     -56.398926     -1534.6928 
   4   2.0000     -56.396595     -1534.6294 
   5   2.0000     -56.396589     -1534.6292 
   6   2.0000     -10.261185      -279.2211 
   7   2.0000      -9.366253      -254.8687 
   8   2.0000      -8.755101      -238.2384 
   9   2.0000      -7.102318      -193.2639 
  10   2.0000      -7.101796      -193.2497 
  11   2.0000      -7.101744      -193.2483 
  12   2.0000      -6.569573      -178.7672 
  13   2.0000      -6.557209      -178.4307 
  14   2.0000      -6.557060      -178.4267 
  15   2.0000      -2.655094       -72.2488 
  16   2.0000      -2.651697       -72.1564 
  17   2.0000      -2.651542       -72.1521 
  18   2.0000      -2.641524       -71.8795 
  19   2.0000      -2.641519       -71.8794 
  20   2.0000      -0.811087       -22.0708 
  21   2.0000      -0.671778       -18.2800 
  22   2.0000      -0.659459       -17.9448 
  23   2.0000      -0.433719       -11.8021 
  24   2.0000      -0.431051       -11.7295 
  25   2.0000      -0.384343       -10.4585 
  26   2.0000      -0.282415        -7.6849 
  27   2.0000      -0.281386        -7.6569 
  28   2.0000      -0.212848        -5.7919 
  29   2.0000      -0.212790        -5.7903 
  30   2.0000      -0.211654        -5.7594 
  31   0.0000       0.026808         0.7295 
  32   0.0000       0.113926         3.1001 
  33   0.0000       0.149859         4.0779 
  34   0.0000       0.201275         5.4770 
  35   0.0000       0.358496         9.7552 
  36   0.0000       0.407511        11.0889 
  37   0.0000       0.416318        11.3286 
  38   0.0000       0.448406        12.2017 
  39   0.0000       0.547106        14.8875 
  40   0.0000       0.547993        14.9116 
  41   0.0000       0.584763        15.9122 
  42   0.0000       0.604998        16.4628 
  43   0.0000       0.612488        16.6667 
  44   0.0000       0.616873        16.7860 
  45   0.0000       0.679818        18.4988 
  46   0.0000       0.688102        18.7242 
  47   0.0000       0.690283        18.7836 
  48   0.0000       0.703868        19.1532 
  49   0.0000       0.767631        20.8883 
  50   0.0000       0.805868        21.9288 
  51   0.0000       0.923370        25.1262 
  52   0.0000       0.923594        25.1323 
  53   0.0000       0.924242        25.1499 
  54   0.0000       0.924530        25.1578 
  55   0.0000       0.953416        25.9438 
  56   0.0000       0.994424        27.0596 
  57   0.0000       0.997388        27.1403 
  58   0.0000       1.044961        28.4348 
  59   0.0000       1.197753        32.5925 
  60   0.0000       1.255685        34.1689 
  61   0.0000       1.283633        34.9294 
  62   0.0000       1.524451        41.4824 
  63   0.0000       1.732640        47.1475 
  64   0.0000       1.747705        47.5575 
  65   0.0000       1.834315        49.9142 
  66   0.0000       1.981566        53.9212 
  67   0.0000       1.999880        54.4195 
  68   0.0000       2.148394        58.4608 
  69   0.0000       2.413181        65.6660 
  70   0.0000       2.427852        66.0652 
  71   0.0000       2.729864        74.2834 
  72   0.0000       2.903858        79.0180 
  73   0.0000       2.911375        79.2225 
  74   0.0000       3.470306        94.4318 
  75   0.0000       3.473196        94.5105 
  76   0.0000       3.552790        96.6763 
  77   0.0000       3.554608        96.7258 
  78   0.0000       3.773462       102.6811 

                    ********************************
                    * MULLIKEN POPULATION ANALYSIS *
                    ********************************

-----------------------
MULLIKEN ATOMIC CHARGES
-----------------------
   0 C :   -0.142125
   1 Br:   -0.241789
   2 H :    0.106381
   3 H :    0.060788
   4 H :    0.103973
   5 Cl:   -0.887227
Sum of atomic charges:   -1.0000000

--------------------------------
MULLIKEN REDUCED ORBITAL CHARGES
--------------------------------
  0 C s       :     3.148951  s :     3.148951
      pz      :     0.875709  p :     2.967343
      px      :     1.041106
      py      :     1.050529
      dz2     :     0.005686  d :     0.025831
      dxz     :     0.007054
      dyz     :     0.003345
      dx2y2   :     0.002712
      dxy     :     0.007035
  1 Brs       :     7.974543  s :     7.974543
      pz      :     5.457346  p :    17.219996
      px      :     5.831842
      py      :     5.930808
      dz2     :     2.014966  d :    10.047250
      dxz     :     2.015681
      dyz     :     2.009675
      dx2y2   :     2.002772
      dxy     :     2.004155
  2 H s       :     0.869558  s :     0.869558
      pz      :     0.004464  p :     0.024061
      px      :     0.009455
      py      :     0.010141
  3 H s       :     0.911843  s :     0.911843
      pz      :     0.009898  p :     0.027369
      px      :     0.013152
      py      :     0.004319
  4 H s       :     0.871997  s :     0.871997
      pz      :     0.004083  p :     0.024030
      px      :     0.007009
      py      :     0.012938
  5 Cls       :     5.990687  s :     5.990687
      pz      :     3.979714  p :    11.896183
      px      :     3.917611
      py      :     3.998858
      dz2     :     0.000021  d :     0.000357
      dxz     :     0.000179
      dyz     :     0.000004
      dx2y2   :     0.000149
      dxy     :     0.000004


                     *******************************
                     * LOEWDIN POPULATION ANALYSIS *
                     *******************************

----------------------
LOEWDIN ATOMIC CHARGES
----------------------
   0 C :   -0.124056
   1 Br:   -0.047676
   2 H :    0.037979
   3 H :   -0.005966
   4 H :    0.038385
   5 Cl:   -0.898666

-------------------------------
LOEWDIN REDUCED ORBITAL CHARGES
-------------------------------
  0 C s       :     2.925132  s :     2.925132
      pz      :     0.962578  p :     3.136017
      px      :     1.080980
      py      :     1.092459
      dz2     :     0.013311  d :     0.062907
      dxz     :     0.017997
      dyz     :     0.007313
      dx2y2   :     0.006330
      dxy     :     0.017956
  1 Brs       :     7.823638  s :     7.823638
      pz      :     5.445346  p :    17.167207
      px      :     5.812528
      py      :     5.909332
      dz2     :     2.018525  d :    10.056832
      dxz     :     2.018947
      dyz     :     2.011356
      dx2y2   :     2.003268
      dxy     :     2.004736
  2 H s       :     0.890787  s :     0.890787
      pz      :     0.014282  p :     0.071234
      px      :     0.028252
      py      :     0.028699
  3 H s       :     0.917336  s :     0.917336
      pz      :     0.035080  p :     0.088630
      px      :     0.041140
      py      :     0.012410
  4 H s       :     0.890745  s :     0.890745
      pz      :     0.012451  p :     0.070869
      px      :     0.020496
      py      :     0.037923
  5 Cls       :     5.986050  s :     5.986050
      pz      :     3.980473  p :    11.912245
      px      :     3.932856
      py      :     3.998916
      dz2     :     0.000025  d :     0.000372
      dxz     :     0.000178
      dyz     :     0.000003
      dx2y2   :     0.000162
      dxy     :     0.000003


                      *****************************
                      * MAYER POPULATION ANALYSIS *
                      *****************************

  NA   - Mulliken gross atomic population
  ZA   - Total nuclear charge
  QA   - Mulliken gross atomic charge
  VA   - Mayer's total valence
  BVA  - Mayer's bonded valence
  FA   - Mayer's free valence

  ATOM       NA         ZA         QA         VA         BVA        FA
  0 C      6.1421     6.0000    -0.1421     3.7809     3.7809    -0.0000
  1 Br    35.2418    35.0000    -0.2418     0.9931     0.9931     0.0000
  2 H      0.8936     1.0000     0.1064     0.9726     0.9726    -0.0000
  3 H      0.9392     1.0000     0.0608     1.1399     1.1399    -0.0000
  4 H      0.8960     1.0000     0.1040     0.9743     0.9743    -0.0000
  5 Cl    17.8872    17.0000    -0.8872     0.2157     0.2157     0.0000

  Mayer bond orders larger than 0.100000
B(  0-C ,  1-Br) :   0.9749 B(  0-C ,  2-H ) :   0.9667 B(  0-C ,  3-H ) :   0.9020 
B(  0-C ,  4-H ) :   0.9677 B(  3-H ,  5-Cl) :   0.2358 


------------------
HIRSHFELD ANALYSIS
------------------

Total integrated alpha density =     31.002091633
Total integrated beta density  =     31.002091633

  ATOM     CHARGE      SPIN    
   0 C   -0.038513    0.000000
   1 Br  -0.171008    0.000000
   2 H    0.045173    0.000000
   3 H    0.006194    0.000000
   4 H    0.045653    0.000000
   5 Cl  -0.891682    0.000000

  TOTAL  -1.004183    0.000000

-------
TIMINGS
-------

Total SCF time: 0 days 0 hours 0 min 6 sec 

Total time                  ....       6.461 sec
Sum of individual times     ....       2.993 sec  ( 46.3%)

Fock matrix formation       ....       2.535 sec  ( 39.2%)
  Split-RI-J                ....       0.573 sec  ( 22.6% of F)
  Chain of spheres X        ....       0.810 sec  ( 31.9% of F)
  COS-X 1 center corr.      ....       0.000 sec  (  0.0% of F)
  XC integration            ....       0.096 sec  (  3.8% of F)
    Basis function eval.    ....       0.037 sec  ( 38.5% of XC)
    Density eval.           ....       0.014 sec  ( 15.1% of XC)
    XC-Functional eval.     ....       0.015 sec  ( 15.4% of XC)
    XC-Potential eval.      ....       0.017 sec  ( 18.2% of XC)
Diagonalization             ....       0.001 sec  (  0.0%)
Density matrix formation    ....       0.001 sec  (  0.0%)
Population analysis         ....       0.019 sec  (  0.3%)
Initial guess               ....       0.003 sec  (  0.1%)
Orbital Transformation      ....       0.000 sec  (  0.0%)
Orbital Orthonormalization  ....       0.001 sec  (  0.0%)
DIIS solution               ....       0.000 sec  (  0.0%)
SOSCF solution              ....       0.002 sec  (  0.0%)
Grid generation             ....       0.432 sec  (  6.7%)


-------------------------------------------------------------------------------
                          DFT DISPERSION CORRECTION                            
                                                                               
                              DFTD3 V3.1  Rev 1                                
                          USING Becke-Johnson damping                          
-------------------------------------------------------------------------------
The PBE0 functional is recognized
Active option DFTDOPT                   ...         4   

molecular C6(AA) [au] = 1032.533835 


            DFT-D V3
 parameters
 s6 scaling factor         :     1.0000 
 a1 scaling factor         :     0.4145 
 s8 scaling factor         :     1.2177 
 a2 scaling factor         :     4.8593 
 ad hoc parameters k1-k3   :    16.0000     1.3333    -4.0000 

 Edisp/kcal,au: -2.054845793615  -0.003274604862 
 E6   /kcal   :  -1.191880853 
 E8   /kcal   :  -0.862964941 
 % E8         :  41.996579184 

-------------------------   ----------------
Dispersion correction           -0.003274605
-------------------------   ----------------


-------------------------   --------------------
FINAL SINGLE POINT ENERGY     -3073.438779533682
-------------------------   --------------------

                                *** OPTIMIZATION RUN DONE ***

                            ***************************************
                            *     ORCA property calculations      *
                            ***************************************

                                    ---------------------
                                    Active property flags
                                    ---------------------
   (+) Dipole Moment


------------------------------------------------------------------------------
                       ORCA ELECTRIC PROPERTIES CALCULATION
------------------------------------------------------------------------------

Dipole Moment Calculation                       ... on
Quadrupole Moment Calculation                   ... off
Polarizability Calculation                      ... off
GBWName                                         ... manual_reactants_341_opt.gbw
Electron density file                           ... manual_reactants_341_opt.scfp
The origin for moment calculation is the CENTER OF MASS  = ( 1.076600,  0.050803  0.118337)

-------------
DIPOLE MOMENT
-------------
                                X             Y             Z
Electronic contribution:     -0.87362       3.54781     -13.21029
Nuclear contribution   :     -2.16344      -2.91710       9.71520
                        -----------------------------------------
Total Dipole Moment    :     -3.03706       0.63071      -3.49509
                        -----------------------------------------
Magnitude (a.u.)       :      4.67302
Magnitude (Debye)      :     11.87788



--------------------
Rotational spectrum 
--------------------
 
Rotational constants in cm-1:     0.427915     0.038718     0.035752 
Rotational constants in MHz : 12828.559130  1160.725723  1071.813667 

 Dipole components along the rotational axes: 
x,y,z [a.u.] :    -4.582838     0.913640     0.004443 
x,y,z [Debye]:   -11.648648     2.322288     0.011292 

 
[1631719957.941548] [comp0806:82431:0]            sys.c:618  UCX  ERROR shmget(size=2097152 flags=0xfb0) for mm_recv_desc failed: Operation not permitted, please check shared memory limits by 'ipcs -l'
[1631719957.948233] [comp0806:82429:0]            sys.c:618  UCX  ERROR shmget(size=2097152 flags=0xfb0) for mm_recv_desc failed: Operation not permitted, please check shared memory limits by 'ipcs -l'
[1631719957.953093] [comp0806:82430:0]            sys.c:618  UCX  ERROR shmget(size=2097152 flags=0xfb0) for mm_recv_desc failed: Operation not permitted, please check shared memory limits by 'ipcs -l'
[1631719957.966216] [comp0806:82433:0]            sys.c:618  UCX  ERROR shmget(size=2097152 flags=0xfb0) for mm_recv_desc failed: Operation not permitted, please check shared memory limits by 'ipcs -l'
[1631719957.973921] [comp0806:82429:0]            sys.c:618  UCX  ERROR shmget(size=2097152 flags=0xb80) for ucp_am_bufs failed: Operation not permitted, please check shared memory limits by 'ipcs -l'
[1631719957.974446] [comp0806:82431:0]            sys.c:618  UCX  ERROR shmget(size=2097152 flags=0xb80) for ucp_am_bufs failed: Operation not permitted, please check shared memory limits by 'ipcs -l'
[1631719957.974441] [comp0806:82433:0]            sys.c:618  UCX  ERROR shmget(size=2097152 flags=0xb80) for ucp_am_bufs failed: Operation not permitted, please check shared memory limits by 'ipcs -l'
[1631719957.976719] [comp0806:82430:0]            sys.c:618  UCX  ERROR shmget(size=2097152 flags=0xb80) for ucp_am_bufs failed: Operation not permitted, please check shared memory limits by 'ipcs -l'

Timings for individual modules:

Sum of individual times         ...      183.121 sec (=   3.052 min)
GTO integral calculation        ...       26.046 sec (=   0.434 min)  14.2 %
SCF iterations                  ...      114.005 sec (=   1.900 min)  62.3 %
SCF Gradient evaluation         ...       36.128 sec (=   0.602 min)  19.7 %
Geometry relaxation             ...        6.942 sec (=   0.116 min)   3.8 %
                             ****ORCA TERMINATED NORMALLY****
TOTAL RUN TIME: 0 days 0 hours 3 minutes 16 seconds 241 msec
