
                                 *****************
                                 * O   R   C   A *
                                 *****************

           --- An Ab Initio, DFT and Semiempirical electronic structure package ---

                  #######################################################
                  #                        -***-                        #
                  #          Department of theory and spectroscopy      #
                  #               Directorship: Frank Neese             #
                  #        Max Planck Institute fuer Kohlenforschung    #
                  #                Kaiser Wilhelm Platz 1               #
                  #                 D-45470 Muelheim/Ruhr               #
                  #                      Germany                        #
                  #                                                     #
                  #                  All rights reserved                #
                  #                        -***-                        #
                  #######################################################


                         Program Version 4.2.1 -  RELEASE  -


 With contributions from (in alphabetic order):
   Daniel Aravena         : Magnetic Suceptibility
   Michael Atanasov       : Ab Initio Ligand Field Theory (pilot matlab implementation)
   Alexander A. Auer      : GIAO ZORA, VPT2
   Ute Becker             : Parallelization
   Giovanni Bistoni       : ED, misc. LED, open-shell LED, HFLD
   Martin Brehm           : Molecular dynamics
   Dmytro Bykov           : SCF Hessian
   Vijay G. Chilkuri      : MRCI spin determinant printing, contributions to CSF-ICE
   Dipayan Datta          : RHF DLPNO-CCSD density
   Achintya Kumar Dutta   : EOM-CC, STEOM-CC
   Dmitry Ganyushin       : Spin-Orbit,Spin-Spin,Magnetic field MRCI
   Miquel Garcia          : C-PCM Hessian, Gaussian charge scheme
   Yang Guo               : DLPNO-NEVPT2, CIM, IAO-localization
   Andreas Hansen         : Spin unrestricted coupled pair/coupled cluster methods
   Benjamin Helmich-Paris : CASSCF linear response (MC-RPA)
   Lee Huntington         : MR-EOM, pCC
   Robert Izsak           : Overlap fitted RIJCOSX, COSX-SCS-MP3, EOM
   Christian Kollmar      : KDIIS, OOCD, Brueckner-CCSD(T), CCSD density
   Simone Kossmann        : Meta GGA functionals, TD-DFT gradient, OOMP2, MP2 Hessian
   Martin Krupicka        : AUTO-CI
   Lucas Lang             : DCDCAS
   Dagmar Lenk            : GEPOL surface, SMD
   Dimitrios Liakos       : Extrapolation schemes; Compound Job, initial MDCI parallelization
   Dimitrios Manganas     : Further ROCIS development; embedding schemes
   Dimitrios Pantazis     : SARC Basis sets
   Taras Petrenko         : DFT Hessian,TD-DFT gradient, ASA, ECA, R-Raman, ABS, FL, XAS/XES, NRVS
   Peter Pinski           : DLPNO-MP2, DLPNO-MP2 Gradient
   Christoph Reimann      : Effective Core Potentials
   Marius Retegan         : Local ZFS, SOC
   Christoph Riplinger    : Optimizer, TS searches, QM/MM, DLPNO-CCSD(T), (RO)-DLPNO pert. Triples
   Tobias Risthaus        : Range-separated hybrids, TD-DFT gradient, RPA, STAB
   Michael Roemelt        : Original ROCIS implementation
   Masaaki Saitow         : Open-shell DLPNO-CCSD energy and density
   Barbara Sandhoefer     : DKH picture change effects
   Avijit Sen             : IP-ROCIS
   Kantharuban Sivalingam : CASSCF convergence, NEVPT2, FIC-MRCI
   Bernardo de Souza      : ESD, SOC TD-DFT
   Georgi Stoychev        : AutoAux, RI-MP2 NMR
   Willem Van den Heuvel  : Paramagnetic NMR
   Boris Wezisla          : Elementary symmetry handling
   Frank Wennmohs         : Technical directorship


 We gratefully acknowledge several colleagues who have allowed us to
 interface, adapt or use parts of their codes:
   Stefan Grimme, W. Hujo, H. Kruse,             : VdW corrections, initial TS optimization,
                  C. Bannwarth                     DFT functionals, gCP, sTDA/sTD-DF
   Ed Valeev, F. Pavosevic, A. Kumar             : LibInt (2-el integral package), F12 methods
   Garnet Chan, S. Sharma, J. Yang, R. Olivares  : DMRG
   Ulf Ekstrom                                   : XCFun DFT Library
   Mihaly Kallay                                 : mrcc  (arbitrary order and MRCC methods)
   Andreas Klamt, Michael Diedenhofen            : otool_cosmo (COSMO solvation model)
   Jiri Pittner, Ondrej Demel                    : Mk-CCSD
   Frank Weinhold                                : gennbo (NPA and NBO analysis)
   Christopher J. Cramer and Donald G. Truhlar   : smd solvation model
   Lars Goerigk                                  : TD-DFT with DH, B97 family of functionals
   V. Asgeirsson, H. Jonsson                     : NEB implementation
   FAccTs GmbH                                   : IRC, NEB, NEB-TS, Multilevel, MM, QM/MM, CI optimization
   S Lehtola, MJT Oliveira, MAL Marques          : LibXC Library


 Your calculation uses the libint2 library for the computation of 2-el integrals
 For citations please refer to: http://libint.valeyev.net

 Your ORCA version has been built with support for libXC version: 4.2.3
 For citations please refer to: https://tddft.org/programs/libxc/

 This ORCA versions uses:
   CBLAS   interface :  Fast vector & matrix operations
   LAPACKE interface :  Fast linear algebra routines
   SCALAPACK package :  Parallel linear algebra routines


Your calculation utilizes the atom-pairwise dispersion correction
with the Becke-Johnson damping scheme (D3BJ)
Cite in your paper:
S.Grimme, S.Ehrlich, L.Goerigk, J Comput Chem, (2011), 32, 1456–1465 
S.Grimme, J.Antony, S.Ehrlich and H.Krieg, J.Chem.Phys., 132, (2010), 154104 
   

----- Orbital basis set information -----
Your calculation utilizes the basis: def2-SVP
   F. Weigend and R. Ahlrichs, Phys. Chem. Chem. Phys. 7, 3297 (2005).

----- AuxJ basis set information -----
Your calculation utilizes the auxiliary basis: def2/J
   F. Weigend, Phys. Chem. Chem. Phys. 8, 1057 (2006).

================================================================================
                                        WARNINGS
                       Please study these warnings very carefully!
================================================================================


INFO   : the flag for use of LIBINT has been found!

================================================================================
                                       INPUT FILE
================================================================================
NAME = manual_reactants_329_freq.inp
|  1> ! Freq PBE0 RIJCOSX D3BJ def2-SVP def2/J CPCM(Acetone)
|  2> %geom MaxIter 100 end
|  3> %output 
|  4> xyzfile=True 
|  5> end 
|  6> %scf 
|  7> maxiter 250 
|  8> end
|  9> %output
| 10> Print[P_Hirshfeld] = 1
| 11> end
| 12> % maxcore
| 13> 4000
| 14> %pal nprocs 4
| 15> end
| 16> *xyz -1 1
| 17>   C   -2.83443589814257      0.34156349432677      0.60791013432083
| 18>   C   -1.77940796266516      0.19670555409679     -0.47955621915518
| 19>   C   -0.41326187417069      0.60765756429434      0.02075187296000
| 20>   Br  0.97479566067299      0.26161000385141     -1.31811452783573
| 21>   H   -3.82006962851169      0.02641349023542      0.23261125855102
| 22>   H   -2.58539069626848     -0.27833322862804      1.48291853345261
| 23>   H   -2.92144451945568      1.38433077822247      0.95288369192354
| 24>   H   -1.73888537161634     -0.85088283203809     -0.81967857510174
| 25>   H   -2.05007443072217      0.80207709037375     -1.35996412570757
| 26>   H   -0.10067852335438      0.04289077819633      0.91285493496357
| 27>   H   -0.35013475327696      1.68367583408518      0.23261854101184
| 28>   Br  0.37840799751115     -1.30253852701632      3.24933448061680
| 29> *
| 30> 
| 31>                          ****END OF INPUT****
================================================================================

                       ****************************
                       * Single Point Calculation *
                       ****************************

---------------------------------
CARTESIAN COORDINATES (ANGSTROEM)
---------------------------------
  C     -2.834436    0.341563    0.607910
  C     -1.779408    0.196706   -0.479556
  C     -0.413262    0.607658    0.020752
  Br     0.974796    0.261610   -1.318115
  H     -3.820070    0.026413    0.232611
  H     -2.585391   -0.278333    1.482919
  H     -2.921445    1.384331    0.952884
  H     -1.738885   -0.850883   -0.819679
  H     -2.050074    0.802077   -1.359964
  H     -0.100679    0.042891    0.912855
  H     -0.350135    1.683676    0.232619
  Br     0.378408   -1.302539    3.249334

----------------------------
CARTESIAN COORDINATES (A.U.)
----------------------------
  NO LB      ZA    FRAG     MASS         X           Y           Z
   0 C     6.0000    0    12.011   -5.356308    0.645461    1.148784
   1 C     6.0000    0    12.011   -3.362594    0.371720   -0.906230
   2 C     6.0000    0    12.011   -0.780952    1.148306    0.039215
   3 Br   35.0000    0    79.900    1.842097    0.494371   -2.490875
   4 H     1.0000    0     1.008   -7.218885    0.049914    0.439572
   5 H     1.0000    0     1.008   -4.885680   -0.525974    2.802310
   6 H     1.0000    0     1.008   -5.520730    2.616006    1.800689
   7 H     1.0000    0     1.008   -3.286017   -1.607936   -1.548968
   8 H     1.0000    0     1.008   -3.874079    1.515706   -2.569960
   9 H     1.0000    0     1.008   -0.190255    0.081052    1.725046
  10 H     1.0000    0     1.008   -0.661659    3.181686    0.439585
  11 Br   35.0000    0    79.900    0.715087   -2.461441    6.140352

--------------------------------
INTERNAL COORDINATES (ANGSTROEM)
--------------------------------
 C      0   0   0     0.000000000000     0.00000000     0.00000000
 C      1   0   0     1.522054807629     0.00000000     0.00000000
 C      2   1   0     1.511801864277   111.34990158     0.00000000
 Br     3   2   1     1.959340673110   111.47107807   174.55160896
 H      1   2   3     1.100746392987   110.47656480   180.73932259
 H      1   2   3     1.100879265977   110.94561001   300.73521077
 H      1   2   3     1.101789845656   111.62416658    60.70260229
 H      2   1   3     1.102164563105   109.65936644   120.84912559
 H      2   1   3     1.102203754206   110.37780648   237.91825638
 H      3   2   1     1.101143835801   112.65697992    56.57122892
 H      3   2   1     1.098493438919   112.45919995   292.56381710
 Br    10   3   2     2.738401098644   173.17228427   313.54244412

---------------------------
INTERNAL COORDINATES (A.U.)
---------------------------
 C      0   0   0     0.000000000000     0.00000000     0.00000000
 C      1   0   0     2.876266747238     0.00000000     0.00000000
 C      2   1   0     2.856891492234   111.34990158     0.00000000
 Br     3   2   1     3.702617275231   111.47107807   174.55160896
 H      1   2   3     2.080109225647   110.47656480   180.73932259
 H      1   2   3     2.080360319209   110.94561001   300.73521077
 H      1   2   3     2.082081065426   111.62416658    60.70260229
 H      2   1   3     2.082789178782   109.65936644   120.84912559
 H      2   1   3     2.082863239228   110.37780648   237.91825638
 H      3   2   1     2.080860283720   112.65697992    56.57122892
 H      3   2   1     2.075851759466   112.45919995   292.56381710
 Br    10   3   2     5.174828121267   173.17228427   313.54244412

---------------------
BASIS SET INFORMATION
---------------------
There are 3 groups of distinct atoms

 Group   1 Type C   : 7s4p1d contracted to 3s2p1d pattern {511/31/1}
 Group   2 Type Br  : 14s10p6d contracted to 5s4p3d pattern {63311/5311/411}
 Group   3 Type H   : 4s1p contracted to 2s1p pattern {31/1}

Atom   0C    basis set group =>   1
Atom   1C    basis set group =>   1
Atom   2C    basis set group =>   1
Atom   3Br   basis set group =>   2
Atom   4H    basis set group =>   3
Atom   5H    basis set group =>   3
Atom   6H    basis set group =>   3
Atom   7H    basis set group =>   3
Atom   8H    basis set group =>   3
Atom   9H    basis set group =>   3
Atom  10H    basis set group =>   3
Atom  11Br   basis set group =>   2
---------------------------------
AUXILIARY/J BASIS SET INFORMATION
---------------------------------
There are 3 groups of distinct atoms

 Group   1 Type C   : 12s5p4d2f1g contracted to 6s4p3d1f1g pattern {711111/2111/211/2/1}
 Group   2 Type Br  : 19s5p5d3f1g contracted to 8s4p3d2f1g pattern {121111111/2111/311/21/1}
 Group   3 Type H   : 5s2p1d contracted to 3s1p1d pattern {311/2/1}

Atom   0C    basis set group =>   1
Atom   1C    basis set group =>   1
Atom   2C    basis set group =>   1
Atom   3Br   basis set group =>   2
Atom   4H    basis set group =>   3
Atom   5H    basis set group =>   3
Atom   6H    basis set group =>   3
Atom   7H    basis set group =>   3
Atom   8H    basis set group =>   3
Atom   9H    basis set group =>   3
Atom  10H    basis set group =>   3
Atom  11Br   basis set group =>   2
[1631286046.936263] [comp0802:208593:0]            sys.c:618  UCX  ERROR shmget(size=2097152 flags=0xfb0) for mm_recv_desc failed: Operation not permitted, please check shared memory limits by 'ipcs -l'
[1631286046.937317] [comp0802:208588:0]            sys.c:618  UCX  ERROR shmget(size=2097152 flags=0xfb0) for mm_recv_desc failed: Operation not permitted, please check shared memory limits by 'ipcs -l'
[1631286046.938962] [comp0802:208597:0]            sys.c:618  UCX  ERROR shmget(size=2097152 flags=0xfb0) for mm_recv_desc failed: Operation not permitted, please check shared memory limits by 'ipcs -l'
[1631286046.940677] [comp0802:208590:0]            sys.c:618  UCX  ERROR shmget(size=2097152 flags=0xfb0) for mm_recv_desc failed: Operation not permitted, please check shared memory limits by 'ipcs -l'
[1631286046.981947] [comp0802:208593:0]            sys.c:618  UCX  ERROR shmget(size=2097152 flags=0xb80) for ucp_am_bufs failed: Operation not permitted, please check shared memory limits by 'ipcs -l'
[1631286046.981930] [comp0802:208588:0]            sys.c:618  UCX  ERROR shmget(size=2097152 flags=0xb80) for ucp_am_bufs failed: Operation not permitted, please check shared memory limits by 'ipcs -l'
[1631286046.985710] [comp0802:208597:0]            sys.c:618  UCX  ERROR shmget(size=2097152 flags=0xb80) for ucp_am_bufs failed: Operation not permitted, please check shared memory limits by 'ipcs -l'
[1631286046.985825] [comp0802:208590:0]            sys.c:618  UCX  ERROR shmget(size=2097152 flags=0xb80) for ucp_am_bufs failed: Operation not permitted, please check shared memory limits by 'ipcs -l'


           ************************************************************
           *        Program running with 4 parallel MPI-processes     *
           *              working on a common directory               *
           ************************************************************
------------------------------------------------------------------------------
                           ORCA GTO INTEGRAL CALCULATION
                           -- RI-GTO INTEGRALS CHOSEN --
------------------------------------------------------------------------------

                         BASIS SET STATISTICS AND STARTUP INFO

Gaussian basis set:
 # of primitive gaussian shells          ...  131
 # of primitive gaussian functions       ...  269
 # of contracted shells                  ...   63
 # of contracted basis functions         ...  141
 Highest angular momentum                ...    2
 Maximum contraction depth               ...    6
Auxiliary gaussian basis set:
 # of primitive gaussian shells          ...  194
 # of primitive gaussian functions       ...  500
 # of contracted shells                  ...  116
 # of contracted aux-basis functions     ...  340
 Highest angular momentum                ...    4
 Maximum contraction depth               ...   12
Ratio of auxiliary to basis functions    ...  2.41
Integral package used                  ... LIBINT
 One Electron integrals                  ... done
 Ordering auxiliary basis shells         ... done
 Integral threshhold             Thresh  ...  1.000e-10
 Primitive cut-off               TCut    ...  1.000e-11
 Pre-screening matrix                    ... done
 Shell pair data                         ... 
 Ordering of the shell pairs             ... done (   0.000 sec) 1750 of 2016 pairs
 Determination of significant pairs      ... done (   0.000 sec)
 Creation of shell pair data             ... done (   0.000 sec)
 Storage of shell pair data              ... done (   0.007 sec)
 Shell pair data done in (   0.008 sec)
 Computing two index integrals           ... done
 Cholesky decomposition of the V-matrix  ... done


Timings:
 Total evaluation time                   ...   0.625 sec (  0.010 min)
 One electron matrix time                ...   0.020 sec (  0.000 min) =  3.2%
 Schwartz matrix evaluation time         ...   0.124 sec (  0.002 min) = 19.8%
 Two index repulsion integral time       ...   0.002 sec (  0.000 min) =  0.4%
 Cholesky decomposition of V             ...   0.444 sec (  0.007 min) = 71.0%
 Three index repulsion integral time     ...   0.000 sec (  0.000 min) =  0.0%

[1631286049.766181] [comp0802:208659:0]            sys.c:618  UCX  ERROR shmget(size=2097152 flags=0xfb0) for mm_recv_desc failed: Operation not permitted, please check shared memory limits by 'ipcs -l'
[1631286049.767753] [comp0802:208665:0]            sys.c:618  UCX  ERROR shmget(size=2097152 flags=0xfb0) for mm_recv_desc failed: Operation not permitted, please check shared memory limits by 'ipcs -l'
[1631286049.768993] [comp0802:208661:0]            sys.c:618  UCX  ERROR shmget(size=2097152 flags=0xfb0) for mm_recv_desc failed: Operation not permitted, please check shared memory limits by 'ipcs -l'
[1631286049.787733] [comp0802:208667:0]            sys.c:618  UCX  ERROR shmget(size=2097152 flags=0xfb0) for mm_recv_desc failed: Operation not permitted, please check shared memory limits by 'ipcs -l'
[1631286049.830996] [comp0802:208661:0]            sys.c:618  UCX  ERROR shmget(size=2097152 flags=0xb80) for ucp_am_bufs failed: Operation not permitted, please check shared memory limits by 'ipcs -l'
[1631286049.831798] [comp0802:208659:0]            sys.c:618  UCX  ERROR shmget(size=2097152 flags=0xb80) for ucp_am_bufs failed: Operation not permitted, please check shared memory limits by 'ipcs -l'


           ************************************************************
           *        Program running with 4 parallel MPI-processes     *
           *              working on a common directory               *
           ************************************************************
[1631286049.836099] [comp0802:208665:0]            sys.c:618  UCX  ERROR shmget(size=2097152 flags=0xb80) for ucp_am_bufs failed: Operation not permitted, please check shared memory limits by 'ipcs -l'
[1631286049.836140] [comp0802:208667:0]            sys.c:618  UCX  ERROR shmget(size=2097152 flags=0xb80) for ucp_am_bufs failed: Operation not permitted, please check shared memory limits by 'ipcs -l'
-------------------------------------------------------------------------------
                                 ORCA SCF
-------------------------------------------------------------------------------

------------
SCF SETTINGS
------------
Hamiltonian:
 Density Functional     Method          .... DFT(GTOs)
 Exchange Functional    Exchange        .... PBE
   PBE kappa parameter   XKappa         ....  0.804000
   PBE mue parameter    XMuePBE         ....  0.219520
 Correlation Functional Correlation     .... PBE
   PBE beta parameter  CBetaPBE         ....  0.066725
 LDA part of GGA corr.  LDAOpt          .... PW91-LDA
 Gradients option       PostSCFGGA      .... off
 Hybrid DFT is turned on
   Fraction HF Exchange ScalHFX         ....  0.250000
   Scaling of DF-GGA-X  ScalDFX         ....  0.750000
   Scaling of DF-GGA-C  ScalDFC         ....  1.000000
   Scaling of DF-LDA-C  ScalLDAC        ....  1.000000
   Perturbative correction              ....  0.000000
   Density functional embedding theory  .... OFF
   NL short-range parameter             ....  6.900000
 RI-approximation to the Coulomb term is turned on
   Number of auxiliary basis functions  .... 340
   RIJ-COSX (HFX calculated with COS-X)).... on


General Settings:
 Integral files         IntName         .... manual_reactants_329_freq
 Hartree-Fock type      HFTyp           .... RHF
 Total Charge           Charge          ....   -1
 Multiplicity           Mult            ....    1
 Number of Electrons    NEL             ....   96
 Basis Dimension        Dim             ....  141
 Nuclear Repulsion      ENuc            ....    478.4816812093 Eh

Convergence Acceleration:
 DIIS                   CNVDIIS         .... on
   Start iteration      DIISMaxIt       ....    12
   Startup error        DIISStart       ....  0.200000
   # of expansion vecs  DIISMaxEq       ....     5
   Bias factor          DIISBfac        ....   1.050
   Max. coefficient     DIISMaxC        ....  10.000
 Newton-Raphson         CNVNR           .... off
 SOSCF                  CNVSOSCF        .... on
   Start iteration      SOSCFMaxIt      ....   150
   Startup grad/error   SOSCFStart      ....  0.003300
 Level Shifting         CNVShift        .... on
   Level shift para.    LevelShift      ....    0.2500
   Turn off err/grad.   ShiftErr        ....    0.0010
 Zerner damping         CNVZerner       .... off
 Static damping         CNVDamp         .... on
   Fraction old density DampFac         ....    0.7000
   Max. Damping (<1)    DampMax         ....    0.9800
   Min. Damping (>=0)   DampMin         ....    0.0000
   Turn off err/grad.   DampErr         ....    0.1000
 Fernandez-Rico         CNVRico         .... off

SCF Procedure:
 Maximum # iterations   MaxIter         ....   250
 SCF integral mode      SCFMode         .... Direct
   Integral package                     .... LIBINT
 Reset frequency        DirectResetFreq ....    20
 Integral Threshold     Thresh          ....  1.000e-10 Eh
 Primitive CutOff       TCut            ....  1.000e-11 Eh

Convergence Tolerance:
 Convergence Check Mode ConvCheckMode   .... Total+1el-Energy
 Convergence forced     ConvForced      .... 0
 Energy Change          TolE            ....  1.000e-06 Eh
 1-El. energy change                    ....  1.000e-03 Eh
 Orbital Gradient       TolG            ....  5.000e-05
 Orbital Rotation angle TolX            ....  5.000e-05
 DIIS Error             TolErr          ....  1.000e-06


Diagonalization of the overlap matrix:
Smallest eigenvalue                        ... 2.339e-03
Time for diagonalization                   ...    0.156 sec
Threshold for overlap eigenvalues          ... 1.000e-08
Number of eigenvalues below threshold      ... 0
Time for construction of square roots      ...    0.002 sec
Total time needed                          ...    0.158 sec

-------------------
DFT GRID GENERATION
-------------------

General Integration Accuracy     IntAcc      ...  4.340
Radial Grid Type                 RadialGrid  ... Gauss-Chebyshev
Angular Grid (max. acc.)         AngularGrid ... Lebedev-110
Angular grid pruning method      GridPruning ... 3 (G Style)
Weight generation scheme         WeightScheme... Becke
Basis function cutoff            BFCut       ...    1.0000e-10
Integration weight cutoff        WCut        ...    1.0000e-14
Grids for H and He will be reduced by one unit

# of grid points (after initial pruning)     ...  16306 (   0.0 sec)
# of grid points (after weights+screening)   ...  15551 (   0.0 sec)
nearest neighbour list constructed           ...    0.0 sec
Grid point re-assignment to atoms done       ...    0.0 sec
Grid point division into batches done        ...    0.0 sec
Reduced shell lists constructed in    0.1 sec

Total number of grid points                  ...    15551
Total number of batches                      ...      249
Average number of points per batch           ...       62
Average number of grid points per atom       ...     1296
Average number of shells per batch           ...    42.78 (67.91%)
Average number of basis functions per batch  ...    91.38 (64.80%)
Average number of large shells per batch     ...    35.17 (82.21%)
Average number of large basis fcns per batch ...    73.14 (80.04%)
Maximum spatial batch extension              ...  18.98, 17.60, 20.05 au
Average spatial batch extension              ...   0.77,  0.75,  0.85 au

Time for grid setup =    0.097 sec

------------------------------
INITIAL GUESS: MODEL POTENTIAL
------------------------------
Loading Hartree-Fock densities                     ... done
Calculating cut-offs                               ... done
Setting up the integral package                    ... done
Initializing the effective Hamiltonian             ... done
Starting the Coulomb interaction                   ... done (   0.0 sec)
Reading the grid                                   ... done
Mapping shells                                     ... done
Starting the XC term evaluation                    ... done (   0.0 sec)
  promolecular density results
     # of electrons  =     94.990850573
     EX              =   -195.912149029
     EC              =     -4.220469682
     EX+EC           =   -200.132618711
Transforming the Hamiltonian                       ... done (   0.0 sec)
Diagonalizing the Hamiltonian                      ... done (   0.0 sec)
Back transforming the eigenvectors                 ... done (   0.0 sec)
Now organizing SCF variables                       ... done
                      ------------------
                      INITIAL GUESS DONE (   0.2 sec)
                      ------------------
--------------------
COSX GRID GENERATION
--------------------

General Integration Accuracy     IntAcc      ...  3.340
Radial Grid Type                 RadialGrid  ... Gauss-Chebyshev
Angular Grid (max. acc.)         AngularGrid ... Lebedev-50
Angular grid pruning method      GridPruning ... 3 (G Style)
Weight generation scheme         WeightScheme... Becke
Basis function cutoff            BFCut       ...    1.0000e-10
Integration weight cutoff        WCut        ...    1.0000e-14
Grids for H and He will be reduced by one unit

# of grid points (after initial pruning)     ...   6064 (   0.0 sec)
# of grid points (after weights+screening)   ...   5781 (   0.0 sec)
nearest neighbour list constructed           ...    0.0 sec
Grid point re-assignment to atoms done       ...    0.0 sec
Grid point division into batches done        ...    0.0 sec
Reduced shell lists constructed in    0.0 sec

Total number of grid points                  ...     5781
Total number of batches                      ...       97
Average number of points per batch           ...       59
Average number of grid points per atom       ...      482
Average number of shells per batch           ...    45.04 (71.49%)
Average number of basis functions per batch  ...    96.81 (68.66%)
Average number of large shells per batch     ...    37.73 (83.77%)
Average number of large basis fcns per batch ...    78.19 (80.77%)
Maximum spatial batch extension              ...  14.76, 17.24, 15.71 au
Average spatial batch extension              ...   0.98,  0.90,  0.95 au

Overlap Fitting                  UseSFitting ... on
Constructing numerical overlap ... done (      0.0 sec)
Inverting numerical overlap    ... done (      0.0 sec)
Obtaining analytic overlap     ... done (      0.0 sec)
Final contraction and storage  ... done (      0.0 sec)


General Integration Accuracy     IntAcc      ...  3.670
Radial Grid Type                 RadialGrid  ... Gauss-Chebyshev
Angular Grid (max. acc.)         AngularGrid ... Lebedev-50
Angular grid pruning method      GridPruning ... 3 (G Style)
Weight generation scheme         WeightScheme... Becke
Basis function cutoff            BFCut       ...    1.0000e-10
Integration weight cutoff        WCut        ...    1.0000e-14
Grids for H and He will be reduced by one unit

# of grid points (after initial pruning)     ...   7582 (   0.0 sec)
# of grid points (after weights+screening)   ...   7209 (   0.0 sec)
nearest neighbour list constructed           ...    0.0 sec
Grid point re-assignment to atoms done       ...    0.0 sec
Grid point division into batches done        ...    0.0 sec
Reduced shell lists constructed in    0.0 sec

Total number of grid points                  ...     7209
Total number of batches                      ...      119
Average number of points per batch           ...       60
Average number of grid points per atom       ...      601
Average number of shells per batch           ...    44.32 (70.35%)
Average number of basis functions per batch  ...    94.77 (67.22%)
Average number of large shells per batch     ...    36.87 (83.19%)
Average number of large basis fcns per batch ...    76.29 (80.50%)
Maximum spatial batch extension              ...  16.08, 21.13, 16.41 au
Average spatial batch extension              ...   1.05,  0.93,  1.00 au

Overlap Fitting                  UseSFitting ... on
Constructing numerical overlap ... done (      0.0 sec)
Inverting numerical overlap    ... done (      0.0 sec)
Obtaining analytic overlap     ... done (      0.0 sec)
Final contraction and storage  ... done (      0.0 sec)


General Integration Accuracy     IntAcc      ...  4.010
Radial Grid Type                 RadialGrid  ... Gauss-Chebyshev
Angular Grid (max. acc.)         AngularGrid ... Lebedev-110
Angular grid pruning method      GridPruning ... 3 (G Style)
Weight generation scheme         WeightScheme... Becke
Basis function cutoff            BFCut       ...    1.0000e-10
Integration weight cutoff        WCut        ...    1.0000e-14
Grids for H and He will be reduced by one unit

# of grid points (after initial pruning)     ...  14244 (   0.0 sec)
# of grid points (after weights+screening)   ...  13613 (   0.0 sec)
nearest neighbour list constructed           ...    0.0 sec
Grid point re-assignment to atoms done       ...    0.0 sec
Grid point division into batches done        ...    0.0 sec
Reduced shell lists constructed in    0.0 sec

Total number of grid points                  ...    13613
Total number of batches                      ...      218
Average number of points per batch           ...       62
Average number of grid points per atom       ...     1134
Average number of shells per batch           ...    42.95 (68.17%)
Average number of basis functions per batch  ...    92.16 (65.36%)
Average number of large shells per batch     ...    35.38 (82.37%)
Average number of large basis fcns per batch ...    73.41 (79.66%)
Maximum spatial batch extension              ...  17.85, 16.74, 19.17 au
Average spatial batch extension              ...   0.81,  0.79,  0.90 au

Overlap Fitting                  UseSFitting ... on
Constructing numerical overlap ... done (      0.0 sec)
Inverting numerical overlap    ... done (      0.0 sec)
Obtaining analytic overlap     ... done (      0.0 sec)
Final contraction and storage  ... done (      0.0 sec)

Time for X-Grid setup             =    0.163 sec

--------------------
CPCM SOLVATION MODEL
--------------------
CPCM parameters:
  Epsilon                                         ...      20.7000
  Refrac                                          ...       1.3590
  Rsolv                                           ...       1.3000
  Surface type                                    ...    GEPOL SES
  Epsilon function type                           ...         CPCM
Radii:
 Radius for C  used is    3.7795 Bohr (=   2.0000 Ang.)
 Radius for Br used is    4.0818 Bohr (=   2.1600 Ang.)
 Radius for H  used is    2.4566 Bohr (=   1.3000 Ang.)
Calculating surface                               ...        done! (  0.0s)
GEPOL surface points                              ...          535
GEPOL Volume                                      ...    1034.5369
GEPOL Surface-area                                ...     609.2767
Calculating surface distance matrix               ...        done! (  0.0s)
Performing Cholesky decomposition & store         ...        done! (  0.0s)
Overall time for CPCM initialization              ...                 0.1s
--------------
SCF ITERATIONS
--------------
ITER       Energy         Delta-E        Max-DP      RMS-DP      [F,P]     Damp
               ***  Starting incremental Fock matrix formation  ***
  0  -5265.4344498511   0.000000000000 0.11257337  0.00224977  0.1617260 0.7000
  1  -5265.4946067754  -0.060156924251 0.08514826  0.00170576  0.0861849 0.7000
                               ***Turning on DIIS***
  2  -5265.5219283055  -0.027321530096 0.16639475  0.00329190  0.0412988 0.0000
  3  -5265.5622175641  -0.040289258641 0.03810543  0.00098679  0.0459267 0.0000
  4  -5265.5715965339  -0.009378969761 0.01943889  0.00033387  0.0085302 0.0000
                      *** Initiating the SOSCF procedure ***
                           *** Shutting down DIIS ***
                      *** Re-Reading the Fockian *** 
                      *** Removing any level shift *** 
ITER      Energy       Delta-E        Grad      Rot      Max-DP    RMS-DP
  5  -5265.57198548  -0.0003889445  0.000658  0.000658  0.001597  0.000077
               *** Restarting incremental Fock matrix formation ***
  6  -5265.57199643  -0.0000109548  0.000341  0.000660  0.001206  0.000051
  7  -5265.57199717  -0.0000007321  0.000231  0.000160  0.000790  0.000015
  8  -5265.57199889  -0.0000017289  0.000033  0.000019  0.000168  0.000003
  9  -5265.57199872   0.0000001693  0.000028  0.000008  0.000068  0.000001
                 **** Energy Check signals convergence ****
              ***Rediagonalizing the Fockian in SOSCF/NRSCF***

               *****************************************************
               *                     SUCCESS                       *
               *           SCF CONVERGED AFTER  10 CYCLES          *
               *****************************************************

Setting up the final grid:

General Integration Accuracy     IntAcc      ...  4.670
Radial Grid Type                 RadialGrid  ... Gauss-Chebyshev
Angular Grid (max. acc.)         AngularGrid ... Lebedev-302
Angular grid pruning method      GridPruning ... 3 (G Style)
Weight generation scheme         WeightScheme... Becke
Basis function cutoff            BFCut       ...    1.0000e-10
Integration weight cutoff        WCut        ...    1.0000e-14
Grids for H and He will be reduced by one unit

# of grid points (after initial pruning)     ...  61626 (   0.0 sec)
# of grid points (after weights+screening)   ...  58045 (   0.0 sec)
nearest neighbour list constructed           ...    0.0 sec
Grid point re-assignment to atoms done       ...    0.0 sec
Grid point division into batches done        ...    0.2 sec
Reduced shell lists constructed in    0.3 sec

Total number of grid points                  ...    58045
Total number of batches                      ...      913
Average number of points per batch           ...       63
Average number of grid points per atom       ...     4837
Average number of shells per batch           ...    40.53 (64.33%)
Average number of basis functions per batch  ...    85.90 (60.92%)
Average number of large shells per batch     ...    33.12 (81.72%)
Average number of large basis fcns per batch ...    68.54 (79.79%)
Maximum spatial batch extension              ...  14.39, 15.36, 14.71 au
Average spatial batch extension              ...   0.51,  0.54,  0.52 au

Final grid set up in    0.3 sec
Final integration                            ... done (   0.1 sec)
Change in XC energy                          ...    -0.000416150
Integrated number of electrons               ...    96.000026348
Previous integrated no of electrons          ...    95.995681321
Old exchange energy                            =    -49.364690982 Eh
New exchange energy                            =    -49.364620995 Eh
Exchange energy change after final integration =      0.000069987 Eh
Total energy after final integration           =  -5265.572345072 Eh
Final COS-X integration done in                =     0.769 sec

----------------
TOTAL SCF ENERGY
----------------

Total Energy       :        -5265.57234507 Eh         -143283.50790 eV

Components:
Nuclear Repulsion  :          478.48168121 Eh           13020.14848 eV
Electronic Energy  :        -5744.05402628 Eh         -156303.65638 eV
One Electron Energy:        -8296.28279786 Eh         -225753.33201 eV
Two Electron Energy:         2552.22877158 Eh           69449.67563 eV
CPCM Dielectric    :           -0.10360889 Eh              -2.81934 eV

Virial components:
Potential Energy   :       -10524.66265395 Eh         -286390.63063 eV
Kinetic Energy     :         5259.09030887 Eh          143107.12273 eV
Virial Ratio       :            2.00123254


DFT components:
N(Alpha)           :       48.000013173900 electrons
N(Beta)            :       48.000013173900 electrons
N(Total)           :       96.000026347800 electrons
E(X)               :     -147.450893543263 Eh       
E(C)               :       -4.271849614188 Eh       
E(XC)              :     -151.722743157452 Eh       
DFET-embed. en.    :        0.000000000000 Eh       
CPCM Solvation Model Properties:
Surface-charge          :            0.97469415
Charge-correction       :           -0.00350445 Eh              -0.09536 eV
Free-energy (cav+disp)  :            0.00394421 Eh               0.10733 eV
Corrected G(solv)       :        -5265.57190532 Eh         -143283.49594 eV

---------------
SCF CONVERGENCE
---------------

  Last Energy change         ...   -1.8324e-07  Tolerance :   1.0000e-06
  Last MAX-Density change    ...    5.3291e-15  Tolerance :   1.0000e-05
  Last RMS-Density change    ...    1.0740e-16  Tolerance :   1.0000e-06
  Last Orbital Gradient      ...    3.4134e-06  Tolerance :   5.0000e-05
  Last Orbital Rotation      ...    2.5962e-06  Tolerance :   5.0000e-05

             **** THE GBW FILE WAS UPDATED (manual_reactants_329_freq.gbw) ****
             **** DENSITY FILE WAS UPDATED (manual_reactants_329_freq.scfp) ****
             **** ENERGY FILE WAS UPDATED (manual_reactants_329_freq.en.tmp) ****
             **** THE GBW FILE WAS UPDATED (manual_reactants_329_freq.gbw) ****
             **** DENSITY FILE WAS UPDATED (manual_reactants_329_freq.scfp) ****
----------------
ORBITAL ENERGIES
----------------

  NO   OCC          E(Eh)            E(eV) 
   0   2.0000    -483.170745    -13147.7444 
   1   2.0000    -483.066673    -13144.9124 
   2   2.0000     -62.607140     -1703.6269 
   3   2.0000     -62.501848     -1700.7618 
   4   2.0000     -56.396299     -1534.6213 
   5   2.0000     -56.394064     -1534.5605 
   6   2.0000     -56.393957     -1534.5576 
   7   2.0000     -56.289853     -1531.7248 
   8   2.0000     -56.289772     -1531.7226 
   9   2.0000     -56.289423     -1531.7131 
  10   2.0000     -10.267455      -279.3916 
  11   2.0000     -10.228889      -278.3422 
  12   2.0000     -10.217597      -278.0349 
  13   2.0000      -8.752488      -238.1673 
  14   2.0000      -8.645305      -235.2507 
  15   2.0000      -6.566674      -178.6883 
  16   2.0000      -6.554752      -178.3639 
  17   2.0000      -6.554591      -178.3595 
  18   2.0000      -6.451776      -175.5617 
  19   2.0000      -6.451601      -175.5570 
  20   2.0000      -6.451453      -175.5530 
  21   2.0000      -2.652330       -72.1736 
  22   2.0000      -2.648893       -72.0801 
  23   2.0000      -2.648777       -72.0769 
  24   2.0000      -2.639188       -71.8159 
  25   2.0000      -2.639174       -71.8156 
  26   2.0000      -2.538598       -69.0788 
  27   2.0000      -2.538577       -69.0782 
  28   2.0000      -2.538490       -69.0758 
  29   2.0000      -2.538367       -69.0725 
  30   2.0000      -2.538339       -69.0717 
  31   2.0000      -0.830599       -22.6017 
  32   2.0000      -0.765814       -20.8388 
  33   2.0000      -0.664817       -18.0906 
  34   2.0000      -0.654661       -17.8142 
  35   2.0000      -0.590718       -16.0743 
  36   2.0000      -0.479486       -13.0475 
  37   2.0000      -0.439020       -11.9464 
  38   2.0000      -0.418230       -11.3806 
  39   2.0000      -0.402903       -10.9635 
  40   2.0000      -0.356659        -9.7052 
  41   2.0000      -0.347695        -9.4612 
  42   2.0000      -0.337436        -9.1821 
  43   2.0000      -0.281716        -7.6659 
  44   2.0000      -0.280349        -7.6287 
  45   2.0000      -0.217732        -5.9248 
  46   2.0000      -0.217503        -5.9186 
  47   2.0000      -0.215171        -5.8551 
  48   0.0000       0.023803         0.6477 
  49   0.0000       0.094754         2.5784 
  50   0.0000       0.120989         3.2923 
  51   0.0000       0.134122         3.6497 
  52   0.0000       0.138324         3.7640 
  53   0.0000       0.170708         4.6452 
  54   0.0000       0.179288         4.8787 
  55   0.0000       0.187164         5.0930 
  56   0.0000       0.225089         6.1250 
  57   0.0000       0.250512         6.8168 
  58   0.0000       0.359005         9.7690 
  59   0.0000       0.397954        10.8289 
  60   0.0000       0.421220        11.4620 
  61   0.0000       0.425581        11.5807 
  62   0.0000       0.440579        11.9888 
  63   0.0000       0.447584        12.1794 
  64   0.0000       0.464258        12.6331 
  65   0.0000       0.531239        14.4557 
  66   0.0000       0.536496        14.5988 
  67   0.0000       0.578620        15.7451 
  68   0.0000       0.586878        15.9698 
  69   0.0000       0.609729        16.5916 
  70   0.0000       0.615482        16.7481 
  71   0.0000       0.623172        16.9574 
  72   0.0000       0.629697        17.1349 
  73   0.0000       0.630862        17.1666 
  74   0.0000       0.631967        17.1967 
  75   0.0000       0.638888        17.3850 
  76   0.0000       0.645867        17.5749 
  77   0.0000       0.656575        17.8663 
  78   0.0000       0.667944        18.1757 
  79   0.0000       0.685635        18.6571 
  80   0.0000       0.701262        19.0823 
  81   0.0000       0.705973        19.2105 
  82   0.0000       0.710496        19.3336 
  83   0.0000       0.718392        19.5484 
  84   0.0000       0.726801        19.7773 
  85   0.0000       0.733738        19.9660 
  86   0.0000       0.740089        20.1388 
  87   0.0000       0.785644        21.3785 
  88   0.0000       0.801180        21.8012 
  89   0.0000       0.840704        22.8767 
  90   0.0000       0.889090        24.1934 
  91   0.0000       1.007086        27.4042 
  92   0.0000       1.029693        28.0194 
  93   0.0000       1.062332        28.9075 
  94   0.0000       1.072774        29.1917 
  95   0.0000       1.191306        32.4171 
  96   0.0000       1.230493        33.4834 
  97   0.0000       1.370639        37.2970 
  98   0.0000       1.382599        37.6224 
  99   0.0000       1.417465        38.5712 
 100   0.0000       1.556138        42.3447 
 101   0.0000       1.680227        45.7213 
 102   0.0000       1.747137        47.5420 
 103   0.0000       1.758300        47.8458 
 104   0.0000       1.791657        48.7535 
 105   0.0000       1.793629        48.8071 
 106   0.0000       1.810340        49.2619 
 107   0.0000       1.838459        50.0270 
 108   0.0000       1.854744        50.4701 
 109   0.0000       1.876287        51.0564 
 110   0.0000       1.899864        51.6979 
 111   0.0000       1.932973        52.5989 
 112   0.0000       1.968264        53.5592 
 113   0.0000       1.990358        54.1604 
 114   0.0000       2.095514        57.0218 
 115   0.0000       2.157433        58.7067 
 116   0.0000       2.235933        60.8428 
 117   0.0000       2.337620        63.6099 
 118   0.0000       2.398369        65.2629 
 119   0.0000       2.414395        65.6990 
 120   0.0000       2.449463        66.6533 
 121   0.0000       2.556989        69.5792 
 122   0.0000       2.590042        70.4786 
 123   0.0000       2.608774        70.9884 
 124   0.0000       2.780421        75.6591 
 125   0.0000       2.843901        77.3865 
 126   0.0000       2.907820        79.1258 
 127   0.0000       2.943992        80.1101 
 128   0.0000       3.026226        82.3478 
 129   0.0000       3.058052        83.2138 
 130   0.0000       3.086582        83.9902 
 131   0.0000       3.477712        94.6334 
 132   0.0000       3.497797        95.1799 
 133   0.0000       3.559612        96.8620 
 134   0.0000       3.559699        96.8643 
 135   0.0000       3.559729        96.8652 
 136   0.0000       3.566605        97.0523 
 137   0.0000       3.590569        97.7043 
 138   0.0000       3.603106        98.0455 
 139   0.0000       3.632568        98.8472 
 140   0.0000       3.839535       104.4791 

                    ********************************
                    * MULLIKEN POPULATION ANALYSIS *
                    ********************************

-----------------------
MULLIKEN ATOMIC CHARGES
-----------------------
   0 C :   -0.089625
   1 C :   -0.082544
   2 C :   -0.126424
   3 Br:   -0.211175
   4 H :    0.051306
   5 H :    0.039558
   6 H :    0.047293
   7 H :    0.052642
   8 H :    0.052753
   9 H :    0.090643
  10 H :    0.100229
  11 Br:   -0.924657
Sum of atomic charges:   -1.0000000

--------------------------------
MULLIKEN REDUCED ORBITAL CHARGES
--------------------------------
  0 C s       :     3.049429  s :     3.049429
      pz      :     0.994481  p :     3.012653
      px      :     0.987186
      py      :     1.030985
      dz2     :     0.004853  d :     0.027543
      dxz     :     0.006080
      dyz     :     0.006711
      dx2y2   :     0.007259
      dxy     :     0.002640
  1 C s       :     3.068430  s :     3.068430
      pz      :     1.026816  p :     2.977326
      px      :     0.917624
      py      :     1.032885
      dz2     :     0.006478  d :     0.036789
      dxz     :     0.008449
      dyz     :     0.007293
      dx2y2   :     0.009562
      dxy     :     0.005007
  2 C s       :     3.167121  s :     3.167121
      pz      :     0.956181  p :     2.923609
      px      :     0.883014
      py      :     1.084414
      dz2     :     0.005766  d :     0.035694
      dxz     :     0.009883
      dyz     :     0.005198
      dx2y2   :     0.009647
      dxy     :     0.005200
  3 Brs       :     7.969242  s :     7.969242
      pz      :     5.629485  p :    17.199102
      px      :     5.610690
      py      :     5.958927
      dz2     :     2.007989  d :    10.042831
      dxz     :     2.017373
      dyz     :     2.005598
      dx2y2   :     2.006727
      dxy     :     2.005143
  4 H s       :     0.924815  s :     0.924815
      pz      :     0.005616  p :     0.023878
      px      :     0.012409
      py      :     0.005854
  5 H s       :     0.936400  s :     0.936400
      pz      :     0.010781  p :     0.024042
      px      :     0.005041
      py      :     0.008220
  6 H s       :     0.928856  s :     0.928856
      pz      :     0.005516  p :     0.023851
      px      :     0.004663
      py      :     0.013672
  7 H s       :     0.924740  s :     0.924740
      pz      :     0.005202  p :     0.022618
      px      :     0.003670
      py      :     0.013745
  8 H s       :     0.924753  s :     0.924753
      pz      :     0.010568  p :     0.022494
      px      :     0.004133
      py      :     0.007794
  9 H s       :     0.884365  s :     0.884365
      pz      :     0.012885  p :     0.024992
      px      :     0.004067
      py      :     0.008040
 10 H s       :     0.877062  s :     0.877062
      pz      :     0.004193  p :     0.022709
      px      :     0.003358
      py      :     0.015158
 11 Brs       :     7.996243  s :     7.996243
      pz      :     5.955878  p :    17.927873
      px      :     5.986051
      py      :     5.985944
      dz2     :     2.000171  d :    10.000541
      dxz     :     2.000052
      dyz     :     2.000275
      dx2y2   :     2.000024
      dxy     :     2.000018


                     *******************************
                     * LOEWDIN POPULATION ANALYSIS *
                     *******************************

----------------------
LOEWDIN ATOMIC CHARGES
----------------------
   0 C :   -0.072154
   1 C :   -0.070140
   2 C :   -0.086594
   3 Br:   -0.042484
   4 H :    0.034467
   5 H :    0.025891
   6 H :    0.030585
   7 H :    0.031107
   8 H :    0.030097
   9 H :    0.011421
  10 H :    0.037022
  11 Br:   -0.929217

-------------------------------
LOEWDIN REDUCED ORBITAL CHARGES
-------------------------------
  0 C s       :     2.844791  s :     2.844791
      pz      :     1.047001  p :     3.156940
      px      :     1.037220
      py      :     1.072719
      dz2     :     0.011476  d :     0.070422
      dxz     :     0.017259
      dyz     :     0.016430
      dx2y2   :     0.019268
      dxy     :     0.005988
  1 C s       :     2.845584  s :     2.845584
      pz      :     1.051022  p :     3.133511
      px      :     1.013990
      py      :     1.068499
      dz2     :     0.014956  d :     0.091046
      dxz     :     0.022191
      dyz     :     0.017735
      dx2y2   :     0.025265
      dxy     :     0.010898
  2 C s       :     2.917215  s :     2.917215
      pz      :     1.003278  p :     3.086232
      px      :     0.977949
      py      :     1.105005
      dz2     :     0.013651  d :     0.083147
      dxz     :     0.022100
      dyz     :     0.012502
      dx2y2   :     0.024142
      dxy     :     0.010753
  3 Brs       :     7.825387  s :     7.825387
      pz      :     5.623953  p :    17.162836
      px      :     5.598608
      py      :     5.940275
      dz2     :     2.009827  d :    10.054261
      dxz     :     2.023208
      dyz     :     2.006446
      dx2y2   :     2.008854
      dxy     :     2.005925
  4 H s       :     0.899455  s :     0.899455
      pz      :     0.015890  p :     0.066078
      px      :     0.035172
      py      :     0.015015
  5 H s       :     0.907099  s :     0.907099
      pz      :     0.031158  p :     0.067010
      px      :     0.014072
      py      :     0.021780
  6 H s       :     0.903402  s :     0.903402
      pz      :     0.015510  p :     0.066013
      px      :     0.012782
      py      :     0.037721
  7 H s       :     0.902447  s :     0.902447
      pz      :     0.015536  p :     0.066446
      px      :     0.012137
      py      :     0.038773
  8 H s       :     0.903467  s :     0.903467
      pz      :     0.031101  p :     0.066435
      px      :     0.014100
      py      :     0.021235
  9 H s       :     0.908191  s :     0.908191
      pz      :     0.042428  p :     0.080388
      px      :     0.014215
      py      :     0.023745
 10 H s       :     0.891909  s :     0.891909
      pz      :     0.014264  p :     0.071069
      px      :     0.012049
      py      :     0.044756
 11 Brs       :     7.994321  s :     7.994321
      pz      :     5.958960  p :    17.934301
      px      :     5.989018
      py      :     5.986323
      dz2     :     2.000180  d :    10.000595
      dxz     :     2.000061
      dyz     :     2.000308
      dx2y2   :     2.000024
      dxy     :     2.000022


                      *****************************
                      * MAYER POPULATION ANALYSIS *
                      *****************************

  NA   - Mulliken gross atomic population
  ZA   - Total nuclear charge
  QA   - Mulliken gross atomic charge
  VA   - Mayer's total valence
  BVA  - Mayer's bonded valence
  FA   - Mayer's free valence

  ATOM       NA         ZA         QA         VA         BVA        FA
  0 C      6.0896     6.0000    -0.0896     3.9961     3.9961    -0.0000
  1 C      6.0825     6.0000    -0.0825     4.0212     4.0212    -0.0000
  2 C      6.1264     6.0000    -0.1264     3.8614     3.8614     0.0000
  3 Br    35.2112    35.0000    -0.2112     1.0103     1.0103     0.0000
  4 H      0.9487     1.0000     0.0513     0.9814     0.9814    -0.0000
  5 H      0.9604     1.0000     0.0396     1.0132     1.0132     0.0000
  6 H      0.9527     1.0000     0.0473     0.9836     0.9836    -0.0000
  7 H      0.9474     1.0000     0.0526     0.9786     0.9786    -0.0000
  8 H      0.9472     1.0000     0.0528     0.9756     0.9756    -0.0000
  9 H      0.9094     1.0000     0.0906     1.0561     1.0561     0.0000
 10 H      0.8998     1.0000     0.1002     0.9675     0.9675    -0.0000
 11 Br    35.9247    35.0000    -0.9247     0.1517     0.1517     0.0000

  Mayer bond orders larger than 0.100000
B(  0-C ,  1-C ) :   1.0886 B(  0-C ,  4-H ) :   0.9680 B(  0-C ,  5-H ) :   0.9656 
B(  0-C ,  6-H ) :   0.9714 B(  1-C ,  2-C ) :   1.0398 B(  1-C ,  7-H ) :   0.9482 
B(  1-C ,  8-H ) :   0.9507 B(  2-C ,  3-Br) :   0.9774 B(  2-C ,  9-H ) :   0.9147 
B(  2-C , 10-H ) :   0.9472 B(  9-H , 11-Br) :   0.1269 


------------------
HIRSHFELD ANALYSIS
------------------

Total integrated alpha density =     47.997840660
Total integrated beta density  =     47.997840660

  ATOM     CHARGE      SPIN    
   0 C   -0.069309    0.000000
   1 C   -0.038919    0.000000
   2 C    0.001695    0.000000
   3 Br  -0.168064    0.000000
   4 H    0.030939    0.000000
   5 H    0.020546    0.000000
   6 H    0.028109    0.000000
   7 H    0.026581    0.000000
   8 H    0.025707    0.000000
   9 H    0.010436    0.000000
  10 H    0.042111    0.000000
  11 Br  -0.905514    0.000000

  TOTAL  -0.995681    0.000000

-------
TIMINGS
-------

Total SCF time: 0 days 0 hours 0 min 9 sec 

Total time                  ....       9.924 sec
Sum of individual times     ....       9.469 sec  ( 95.4%)

Fock matrix formation       ....       8.657 sec  ( 87.2%)
  Split-RI-J                ....       1.359 sec  ( 15.7% of F)
  Chain of spheres X        ....       4.561 sec  ( 52.7% of F)
  COS-X 1 center corr.      ....       0.000 sec  (  0.0% of F)
  XC integration            ....       0.436 sec  (  5.0% of F)
    Basis function eval.    ....       0.179 sec  ( 41.1% of XC)
    Density eval.           ....       0.075 sec  ( 17.2% of XC)
    XC-Functional eval.     ....       0.045 sec  ( 10.3% of XC)
    XC-Potential eval.      ....       0.110 sec  ( 25.3% of XC)
Diagonalization             ....       0.014 sec  (  0.1%)
Density matrix formation    ....       0.003 sec  (  0.0%)
Population analysis         ....       0.036 sec  (  0.4%)
Initial guess               ....       0.148 sec  (  1.5%)
Orbital Transformation      ....       0.000 sec  (  0.0%)
Orbital Orthonormalization  ....       0.000 sec  (  0.0%)
DIIS solution               ....       0.004 sec  (  0.0%)
SOSCF solution              ....       0.007 sec  (  0.1%)
Grid generation             ....       0.601 sec  (  6.1%)


-------------------------------------------------------------------------------
                          DFT DISPERSION CORRECTION                            
                                                                               
                              DFTD3 V3.1  Rev 1                                
                          USING Becke-Johnson damping                          
-------------------------------------------------------------------------------
The PBE0 functional is recognized
Active option DFTDOPT                   ...         4   

molecular C6(AA) [au] = 2599.454270 


            DFT-D V3
 parameters
 s6 scaling factor         :     1.0000 
 a1 scaling factor         :     0.4145 
 s8 scaling factor         :     1.2177 
 a2 scaling factor         :     4.8593 
 ad hoc parameters k1-k3   :    16.0000     1.3333    -4.0000 

 Edisp/kcal,au: -5.388110249741  -0.008586499324 
 E6   /kcal   :  -3.285397687 
 E8   /kcal   :  -2.102712563 
 % E8         :  39.025047106 

-------------------------   ----------------
Dispersion correction           -0.008586499
-------------------------   ----------------


-------------------------   --------------------
FINAL SINGLE POINT ENERGY     -5265.580931571150
-------------------------   --------------------


                            ***************************************
                            *     ORCA property calculations      *
                            ***************************************

                                    ---------------------
                                    Active property flags
                                    ---------------------
   (+) Dipole Moment


------------------------------------------------------------------------------
                       ORCA ELECTRIC PROPERTIES CALCULATION
------------------------------------------------------------------------------

Dipole Moment Calculation                       ... on
Quadrupole Moment Calculation                   ... off
Polarizability Calculation                      ... off
GBWName                                         ... manual_reactants_329_freq.gbw
Electron density file                           ... manual_reactants_329_freq.scfp
The origin for moment calculation is the CENTER OF MASS  = ( 0.317286, -0.620074  1.469230)

-------------
DIPOLE MOMENT
-------------
                                X             Y             Z
Electronic contribution:     22.16861      -6.53552       3.40422
Nuclear contribution   :    -23.27717       8.36300      -7.06623
                        -----------------------------------------
Total Dipole Moment    :     -1.10856       1.82748      -3.66200
                        -----------------------------------------
Magnitude (a.u.)       :      4.24015
Magnitude (Debye)      :     10.77760



--------------------
Rotational spectrum 
--------------------
 
Rotational constants in cm-1:     0.061837     0.016881     0.013477 
Rotational constants in MHz :  1853.840955   506.067856   404.043680 

 Dipole components along the rotational axes: 
x,y,z [a.u.] :    -4.013546     1.347273    -0.234831 
x,y,z [Debye]:   -10.201624     3.424497    -0.596892 

 
[1631286062.563163] [comp0802:208723:0]            sys.c:618  UCX  ERROR shmget(size=2097152 flags=0xfb0) for mm_recv_desc failed: Operation not permitted, please check shared memory limits by 'ipcs -l'
[1631286062.568638] [comp0802:208724:0]            sys.c:618  UCX  ERROR shmget(size=2097152 flags=0xfb0) for mm_recv_desc failed: Operation not permitted, please check shared memory limits by 'ipcs -l'
[1631286062.571426] [comp0802:208725:0]            sys.c:618  UCX  ERROR shmget(size=2097152 flags=0xfb0) for mm_recv_desc failed: Operation not permitted, please check shared memory limits by 'ipcs -l'
[1631286062.572639] [comp0802:208726:0]            sys.c:618  UCX  ERROR shmget(size=2097152 flags=0xfb0) for mm_recv_desc failed: Operation not permitted, please check shared memory limits by 'ipcs -l'
[1631286062.625622] [comp0802:208723:0]            sys.c:618  UCX  ERROR shmget(size=2097152 flags=0xb80) for ucp_am_bufs failed: Operation not permitted, please check shared memory limits by 'ipcs -l'


           ************************************************************
           *        Program running with 4 parallel MPI-processes     *
           *              working on a common directory               *
           ************************************************************
[1631286062.642994] [comp0802:208725:0]            sys.c:618  UCX  ERROR shmget(size=2097152 flags=0xb80) for ucp_am_bufs failed: Operation not permitted, please check shared memory limits by 'ipcs -l'
[1631286062.643167] [comp0802:208724:0]            sys.c:618  UCX  ERROR shmget(size=2097152 flags=0xb80) for ucp_am_bufs failed: Operation not permitted, please check shared memory limits by 'ipcs -l'

-------------------------------------------------------------------------------
                               ORCA SCF HESSIAN
-------------------------------------------------------------------------------

Hessian of the Kohn-Sham DFT energy:
Kohn-Sham wavefunction type                      ... RKS
Hartree-Fock exchange scaling                    ...    0.250
Number of operators                              ...    1
Number of atoms                                  ...   12
Basis set dimensions                             ...  141
Integral neglect threshold                       ... 1.0e-10
Integral primitive cutoff                        ... 1.0e-11

Setting up DFT Hessian calculations              ... 
Electron density on the grid                     ... found on disk
Electron density on the final grid               ... found on disk
Building xc-kernel on the grid                   ... done   (      0.0 sec)
Building xc-kernel on the final grid             ... done   (      0.0 sec)
[1631286062.687474] [comp0802:208726:0]            sys.c:618  UCX  ERROR shmget(size=2097152 flags=0xb80) for ucp_am_bufs failed: Operation not permitted, please check shared memory limits by 'ipcs -l'
                                                     done   (      0.1 sec)

Nuclear repulsion Hessian                        ... done   (      0.0 sec)

----------------------------------------------
Forming right-hand sides of CP-SCF equations     ...
----------------------------------------------
One electron integral derivatives                ... done   (      4.7 sec)
Transforming the overlap derivative matrices     ... done   (      0.0 sec)
[1631286068.422551] [comp0802:208726:0]            sys.c:618  UCX  ERROR shmget(size=6291456 flags=0xfb0) for mm_recv_desc failed: Operation not permitted, please check shared memory limits by 'ipcs -l'
[1631286068.422628] [comp0802:208725:0]            sys.c:618  UCX  ERROR shmget(size=6291456 flags=0xfb0) for mm_recv_desc failed: Operation not permitted, please check shared memory limits by 'ipcs -l'
[1631286068.426675] [comp0802:208723:0]            sys.c:618  UCX  ERROR shmget(size=6291456 flags=0xfb0) for mm_recv_desc failed: Operation not permitted, please check shared memory limits by 'ipcs -l'
Adding tr(S(x)F(y) C-PCM term to the hessian     ... done   (      0.7 sec)
Making the Q(x) pseudodensities                  ... [1631286068.436791] [comp0802:208724:0]            sys.c:618  UCX  ERROR shmget(size=6291456 flags=0xfb0) for mm_recv_desc failed: Operation not permitted, please check shared memory limits by 'ipcs -l'
done   (      0.0 sec)
Adding the E*S(x)*S(y) terms to the Hessian      ... done   (      0.0 sec)
Calculating energy weighted overlap derivatives  ... done   (      0.0 sec)
Two electron integral derivatives (RI)           ... done   (      2.2 sec)
Exchange-correlation integral derivatives        ... done   (      4.0 sec)
tr(F(y)Q(x)) contribution to the Hessian         ... done   (      0.0 sec)
Response fock operator R(S(x)) (RIJCOSX)         ... done   (      2.9 sec)
XC Response fock operator R(S(x))                ... done   (      1.4 sec)
tr(F(y)S(x)) contribution to the Hessian         ... done   (      0.0 sec)
Transforming and finalizing RHSs                 ... done   (      0.0 sec)

----------------------------------------------
Solving the CP-SCF equations (RIJCOSX)           ...
----------------------------------------------
     CP-SCF ITERATION   0: 
     CP-SCF ITERATION   1:      0.000497368484
     CP-SCF ITERATION   2:      0.000031241248
     CP-SCF ITERATION   3:      0.000004845386
     CP-SCF ITERATION   4:      0.000000935846

                                                 ... done   (     12.1 sec)
Forming perturbed density Hessian contributions  ... done   (      0.0 sec)
Calculating [Q*(d^2 A/dXdY)*Q  ] C-PCM term      ... done   (      0.0 sec)
Calculating [d^2(V_N)/(dXdY)*Q ] C-PCM term      ... done   (      0.0 sec)
Calculating [d^2(V_el)/(dXdY)*Q] C-PCM term      ... done   (      0.5 sec)
Calculating C-PCM term that depends on dQ/dX     ... done   (      0.0 sec)
2nd integral derivative contribs (RI)            ... done   (     11.0 sec)
Exchange-correlation Hessian                     ... done   (      4.7 sec)
Dispersion correction in the Hessian             ... done   (      0.6 sec)
Dipol derivatives                                ... done   (      0.2 sec)

Total SCF Hessian time: 0 days 0 hours 0 min 47 sec 

Writing the Hessian file to the disk             ... done


Maximum memory used throughout the entire calculation: 138.2 MB

-----------------------
VIBRATIONAL FREQUENCIES
-----------------------

Scaling factor for frequencies =  1.000000000  (already applied!)

   0:         0.00 cm**-1
   1:         0.00 cm**-1
   2:         0.00 cm**-1
   3:         0.00 cm**-1
   4:         0.00 cm**-1
   5:         0.00 cm**-1
   6:        15.60 cm**-1
   7:        34.84 cm**-1
   8:        72.58 cm**-1
   9:       123.95 cm**-1
  10:       215.55 cm**-1
  11:       252.20 cm**-1
  12:       311.26 cm**-1
  13:       653.28 cm**-1
  14:       751.53 cm**-1
  15:       857.34 cm**-1
  16:       915.89 cm**-1
  17:      1056.01 cm**-1
  18:      1071.78 cm**-1
  19:      1122.57 cm**-1
  20:      1227.42 cm**-1
  21:      1256.68 cm**-1
  22:      1303.77 cm**-1
  23:      1353.43 cm**-1
  24:      1384.77 cm**-1
  25:      1446.11 cm**-1
  26:      1449.58 cm**-1
  27:      1459.13 cm**-1
  28:      1470.55 cm**-1
  29:      3049.66 cm**-1
  30:      3066.30 cm**-1
  31:      3079.32 cm**-1
  32:      3117.08 cm**-1
  33:      3144.41 cm**-1
  34:      3152.95 cm**-1
  35:      3172.98 cm**-1


------------
NORMAL MODES
------------

These modes are the Cartesian displacements weighted by the diagonal matrix
M(i,i)=1/sqrt(m[i]) where m[i] is the mass of the displaced atom
Thus, these vectors are normalized but *not* orthogonal

                  0          1          2          3          4          5    
      0       0.000000   0.000000   0.000000   0.000000   0.000000   0.000000
      1       0.000000   0.000000   0.000000   0.000000   0.000000   0.000000
      2       0.000000   0.000000   0.000000   0.000000   0.000000   0.000000
      3       0.000000   0.000000   0.000000   0.000000   0.000000   0.000000
      4       0.000000   0.000000   0.000000   0.000000   0.000000   0.000000
      5       0.000000   0.000000   0.000000   0.000000   0.000000   0.000000
      6       0.000000   0.000000   0.000000   0.000000   0.000000   0.000000
      7       0.000000   0.000000   0.000000   0.000000   0.000000   0.000000
      8       0.000000   0.000000   0.000000   0.000000   0.000000   0.000000
      9       0.000000   0.000000   0.000000   0.000000   0.000000   0.000000
     10       0.000000   0.000000   0.000000   0.000000   0.000000   0.000000
     11       0.000000   0.000000   0.000000   0.000000   0.000000   0.000000
     12       0.000000   0.000000   0.000000   0.000000   0.000000   0.000000
     13       0.000000   0.000000   0.000000   0.000000   0.000000   0.000000
     14       0.000000   0.000000   0.000000   0.000000   0.000000   0.000000
     15       0.000000   0.000000   0.000000   0.000000   0.000000   0.000000
     16       0.000000   0.000000   0.000000   0.000000   0.000000   0.000000
     17       0.000000   0.000000   0.000000   0.000000   0.000000   0.000000
     18       0.000000   0.000000   0.000000   0.000000   0.000000   0.000000
     19       0.000000   0.000000   0.000000   0.000000   0.000000   0.000000
     20       0.000000   0.000000   0.000000   0.000000   0.000000   0.000000
     21       0.000000   0.000000   0.000000   0.000000   0.000000   0.000000
     22       0.000000   0.000000   0.000000   0.000000   0.000000   0.000000
     23       0.000000   0.000000   0.000000   0.000000   0.000000   0.000000
     24       0.000000   0.000000   0.000000   0.000000   0.000000   0.000000
     25       0.000000   0.000000   0.000000   0.000000   0.000000   0.000000
     26       0.000000   0.000000   0.000000   0.000000   0.000000   0.000000
     27       0.000000   0.000000   0.000000   0.000000   0.000000   0.000000
     28       0.000000   0.000000   0.000000   0.000000   0.000000   0.000000
     29       0.000000   0.000000   0.000000   0.000000   0.000000   0.000000
     30       0.000000   0.000000   0.000000   0.000000   0.000000   0.000000
     31       0.000000   0.000000   0.000000   0.000000   0.000000   0.000000
     32       0.000000   0.000000   0.000000   0.000000   0.000000   0.000000
     33       0.000000   0.000000   0.000000   0.000000   0.000000   0.000000
     34       0.000000   0.000000   0.000000   0.000000   0.000000   0.000000
     35       0.000000   0.000000   0.000000   0.000000   0.000000   0.000000
                  6          7          8          9         10         11    
      0       0.231872   0.080077  -0.036492   0.035089  -0.039177  -0.003925
      1      -0.146072  -0.041021   0.118882  -0.158839  -0.065547  -0.002666
      2       0.255558   0.179049  -0.081099   0.031639  -0.160877   0.015384
      3       0.114782   0.053038   0.010782  -0.022739   0.219541  -0.029940
      4      -0.081174  -0.153968  -0.115825   0.160260   0.061740   0.060236
      5       0.133445   0.167946  -0.002905  -0.066630   0.091229  -0.022018
      6       0.154852   0.024731  -0.034957  -0.037362   0.174535  -0.007191
      7      -0.037653   0.110238   0.128335   0.274264   0.085184  -0.041827
      8      -0.011894   0.026982  -0.079397  -0.110299   0.188378   0.002926
      9       0.011526   0.013989  -0.004978  -0.000452  -0.061876   0.006793
     10       0.072421  -0.022215   0.012640  -0.033720  -0.013880  -0.001295
     11      -0.189241   0.049550  -0.018232   0.007388  -0.011012   0.000360
     12       0.205353   0.098219  -0.000375   0.052486   0.113018   0.098041
     13      -0.193646  -0.220535  -0.059277  -0.236077  -0.251677  -0.545104
     14       0.365216   0.282098  -0.026263   0.050678  -0.407289   0.203120
     15       0.368772   0.183156  -0.024232   0.191764  -0.161209   0.324175
     16      -0.139487   0.160704   0.382341  -0.272649  -0.002168   0.381635
     17       0.220937   0.292743   0.103049  -0.093802  -0.081118   0.196734
     18       0.217174  -0.015818  -0.123272  -0.089713  -0.313807  -0.410268
     19      -0.152940   0.020211   0.210975  -0.230628  -0.070419   0.073283
     20       0.274251  -0.030175  -0.383269   0.218054  -0.217622  -0.322101
     21       0.119634   0.162637   0.101946   0.100161   0.344628  -0.059538
     22      -0.072313  -0.223834  -0.208656   0.208028   0.074968   0.081775
     23       0.107111   0.397553   0.295153  -0.197842   0.064795  -0.092408
     24      -0.007550  -0.051834  -0.004953  -0.167267   0.340753  -0.033595
     25      -0.073526  -0.378130  -0.383955   0.228492   0.050068   0.125669
     26       0.176112   0.045739  -0.182397   0.025000   0.044919   0.024226
     27       0.271050   0.115067   0.020695  -0.063652   0.204596  -0.042545
     28      -0.051368   0.316012   0.323724   0.429980   0.059902  -0.137058
     29      -0.062406   0.126102   0.025194  -0.002380   0.163205  -0.045627
     30       0.131436  -0.088279  -0.150118  -0.032840   0.214392   0.055505
     31      -0.042155   0.162089   0.176866   0.313737   0.086334  -0.065968
     32       0.018322  -0.203957  -0.293594  -0.316115   0.174636   0.107693
     33      -0.103389  -0.042803   0.016372   0.004326  -0.000840   0.000239
     34      -0.023448   0.037018  -0.037968  -0.013285   0.002315   0.000011
     35       0.118680  -0.117250   0.048625   0.018445  -0.003576  -0.000707
                 12         13         14         15         16         17    
      0       0.333916  -0.071240   0.004725   0.009949   0.155255   0.035245
      1       0.032991   0.002797  -0.012821  -0.050323   0.027303  -0.065234
      2      -0.072827   0.045018  -0.000220   0.017836  -0.010709  -0.026696
      3       0.123733   0.034403   0.008686   0.006453   0.034335  -0.059374
      4      -0.051198   0.025275  -0.059741  -0.035318   0.038349   0.072700
      5      -0.209603   0.082097   0.018022   0.013189   0.098202   0.015776
      6       0.027049   0.286085   0.003311  -0.012809  -0.145612   0.009596
      7      -0.042769  -0.117455  -0.036672   0.093928  -0.038124  -0.063648
      8      -0.063795  -0.393975   0.030930  -0.040862  -0.035987   0.034212
      9      -0.090333  -0.035037   0.000144   0.000602   0.003049  -0.000545
     10       0.008904   0.015669   0.002021  -0.004679  -0.000854   0.005795
     11       0.057267   0.048555  -0.001872   0.001698  -0.002539  -0.001176
     12       0.218497   0.056880  -0.019866  -0.032030   0.440805  -0.017811
     13       0.056187  -0.058055   0.079572   0.186398  -0.119577   0.125159
     14       0.216258  -0.249633  -0.012897  -0.071330  -0.637420  -0.041667
     15       0.540032  -0.286156  -0.128488  -0.276005  -0.235637  -0.068412
     16       0.099911  -0.034097   0.141738   0.171523  -0.108180   0.093736
     17      -0.082883   0.079490   0.146086   0.252801  -0.001866   0.110896
     18       0.489535  -0.275642   0.115679   0.211235  -0.266943   0.207381
     19       0.064287  -0.015258   0.072645   0.086956  -0.008074   0.029817
     20      -0.126126   0.048115  -0.228918  -0.338813  -0.025489  -0.266727
     21       0.122471  -0.167609  -0.153666   0.255914  -0.160173   0.186826
     22      -0.052804   0.032836   0.098380   0.047161   0.016233   0.027025
     23      -0.203162   0.019314  -0.481866  -0.207750   0.156769   0.178873
     24       0.135649  -0.102984   0.066969  -0.297227  -0.144711  -0.306089
     25      -0.028210   0.031345   0.400182   0.068542   0.037226  -0.139103
     26      -0.197022   0.122807   0.314605   0.177087   0.158015  -0.048983
     27      -0.077850   0.294903   0.128008  -0.031989  -0.175361  -0.333714
     28      -0.068069  -0.003330   0.307320  -0.289857  -0.041100   0.099378
     29      -0.042834  -0.331926   0.207842  -0.284398  -0.032415   0.273358
     30      -0.059507   0.301868  -0.210139   0.081182  -0.225579   0.540480
     31      -0.052993  -0.125514   0.050840  -0.004044  -0.037259  -0.021290
     32       0.017399  -0.364116  -0.357438   0.446942  -0.033198  -0.386333
     33       0.000201  -0.000177  -0.000116  -0.000020   0.000024   0.000097
     34       0.000032  -0.000062  -0.000117   0.000069   0.000005  -0.000058
     35       0.000057   0.000088  -0.000248   0.000102   0.000040  -0.000047
                 18         19         20         21         22         23    
      0      -0.066704   0.062890  -0.007006  -0.035356   0.002955  -0.016280
      1       0.018489   0.036130   0.101740   0.024811  -0.050493  -0.020768
      2       0.196599   0.056859  -0.017580  -0.050015   0.007549  -0.052662
      3       0.174653  -0.115207   0.008282   0.068937   0.023471   0.161165
      4       0.011917  -0.079436  -0.131350  -0.012845  -0.023683   0.020878
      5      -0.174034  -0.156244   0.027754   0.045343   0.015454  -0.045775
      6      -0.050773   0.169092  -0.056008   0.076673  -0.006953  -0.068546
      7      -0.043669   0.067070   0.039841  -0.003822   0.063797   0.000861
      8      -0.002640   0.109006  -0.000095  -0.035635  -0.028320   0.039547
      9      -0.001664  -0.002299  -0.000672   0.000862   0.000079  -0.001196
     10       0.001490  -0.000541   0.002451  -0.000521   0.000703   0.000352
     11      -0.002468  -0.001110   0.001084  -0.004330  -0.000985   0.001992
     12       0.019784   0.215551   0.079236  -0.086551  -0.029858  -0.158533
     13       0.052061  -0.057409  -0.210191  -0.067706   0.050575   0.053033
     14      -0.083312  -0.290159   0.017504   0.165132   0.010264   0.251238
     15      -0.439303  -0.257063   0.109084   0.112327  -0.062898  -0.087282
     16       0.028474  -0.110476  -0.141554   0.022540   0.057808   0.189052
     17       0.312847   0.041424  -0.218499  -0.086040   0.106317   0.125762
     18      -0.315046  -0.304492  -0.146932   0.038583   0.088223  -0.029983
     19       0.031284   0.010817  -0.013167  -0.033692  -0.005725  -0.099309
     20       0.112577   0.035033   0.272101   0.154359  -0.108577   0.211481
     21       0.392740  -0.485486   0.187723  -0.039676  -0.642295  -0.449090
     22       0.003356  -0.122705  -0.008194   0.011611  -0.071175  -0.077273
     23      -0.133746  -0.082201  -0.330181  -0.047506   0.088081   0.207286
     24       0.197074  -0.489630  -0.048717  -0.366218   0.508464  -0.511508
     25      -0.053741  -0.113411   0.144234  -0.003359   0.083569   0.011625
     26      -0.228331  -0.070298   0.236891   0.186033  -0.061693   0.164106
     27      -0.397939   0.037517  -0.156454  -0.695678  -0.395468   0.289359
     28       0.000261   0.081817  -0.101827   0.031108  -0.072706  -0.144491
     29       0.150927   0.181518  -0.054698   0.276145   0.021471  -0.191493
     30      -0.012786   0.078653   0.679611  -0.358099   0.289585   0.138351
     31      -0.020050   0.070734   0.010454  -0.015742   0.023000   0.030141
     32      -0.169694   0.165011  -0.129548   0.181047   0.090156  -0.235328
     33       0.000077  -0.000054   0.000023   0.000167   0.000075  -0.000077
     34      -0.000022   0.000005   0.000051  -0.000006   0.000033  -0.000028
     35      -0.000038  -0.000088   0.000005  -0.000071  -0.000058   0.000136
                 24         25         26         27         28         29    
      0      -0.125099  -0.007979   0.008631   0.002617   0.018763  -0.034757
      1       0.007343  -0.012749  -0.039584  -0.008139   0.014581   0.009028
      2       0.094081  -0.025472   0.013788  -0.007648   0.027215   0.036705
      3       0.067181   0.008548   0.009566  -0.035927   0.051930   0.001905
      4       0.002887   0.017882  -0.023761  -0.002039   0.027734   0.000101
      5      -0.028608   0.047935   0.003961   0.030964   0.054394   0.001383
      6      -0.011447  -0.027448  -0.005592   0.055903  -0.018266   0.000064
      7       0.001037  -0.013220  -0.000562   0.039387  -0.001082  -0.000203
      8       0.011486  -0.013276  -0.007471   0.057416   0.005301  -0.001077
      9      -0.000639   0.000439   0.000045  -0.000448   0.000133  -0.000029
     10       0.000042  -0.000088   0.000087   0.000250   0.000025  -0.000001
     11       0.000347  -0.000392  -0.000187   0.000849   0.000082   0.000006
     12       0.164250   0.059495  -0.141164   0.028580  -0.102636   0.490094
     13      -0.130574  -0.005443   0.648024   0.057227   0.057702   0.161993
     14      -0.515354  -0.179177  -0.174095  -0.119661   0.285616   0.196628
     15       0.520486   0.062153   0.477083   0.084637  -0.082270  -0.131859
     16      -0.093797   0.344481   0.101633   0.134274  -0.430627   0.318696
     17      -0.168907   0.214650  -0.031782   0.071827  -0.267945  -0.436494
     18       0.456191   0.101110  -0.514343  -0.004647  -0.180865   0.041847
     19       0.156213  -0.120461  -0.048255  -0.046189   0.144334  -0.587235
     20      -0.236049   0.350550  -0.054191   0.116965  -0.438670  -0.185443
     21      -0.157913  -0.117676   0.022501   0.014772  -0.193813  -0.000089
     22      -0.021331   0.167927  -0.022859   0.065964   0.145385  -0.020662
     23       0.012533  -0.469472  -0.004359  -0.190974  -0.360711  -0.005077
     24      -0.178065  -0.024209  -0.032270   0.074264  -0.105217  -0.009156
     25      -0.031242  -0.438353   0.045115  -0.145721  -0.382522   0.018046
     26       0.020616  -0.271409   0.069818  -0.107895  -0.188869  -0.024452
     27       0.043421   0.096368  -0.019600  -0.185638   0.024724   0.002987
     28      -0.023554   0.216377   0.049254  -0.601615  -0.033271  -0.008115
     29      -0.023676   0.094249   0.032011  -0.275517  -0.031852   0.011486
     30       0.025236   0.109661   0.049275  -0.250137   0.005968  -0.000660
     31       0.007497  -0.054868  -0.016579   0.159412   0.004684   0.011144
     32      -0.037529   0.185888   0.054218  -0.534152  -0.042666   0.001696
     33       0.000045  -0.000018   0.000060   0.000056  -0.000015  -0.000003
     34      -0.000010  -0.000080  -0.000022   0.000111   0.000012  -0.000002
     35       0.000048  -0.000047   0.000009   0.000128   0.000038   0.000002
                 30         31         32         33         34         35    
      0       0.001672   0.001643  -0.002125   0.021856   0.064107   0.003064
      1       0.002555   0.000906   0.027878   0.086564  -0.017507  -0.004923
      2       0.005873   0.001602  -0.007212   0.006872   0.064552   0.003420
      3      -0.012947  -0.001554   0.015418  -0.003810   0.002954   0.003815
      4      -0.021849  -0.010683  -0.082316   0.025071  -0.009108  -0.016286
      5      -0.061896  -0.017907   0.027550  -0.005252   0.007581   0.005935
      6       0.009588  -0.023722  -0.000149   0.000307  -0.000735   0.007643
      7       0.001177  -0.005115   0.014429  -0.008651   0.007716  -0.091252
      8       0.020381  -0.063214  -0.000595   0.001454  -0.001224   0.021860
      9      -0.000056  -0.000029   0.000007   0.000003   0.000003   0.000004
     10       0.000013   0.000018   0.000005  -0.000001   0.000000   0.000104
     11      -0.000001   0.000163  -0.000004  -0.000003   0.000000  -0.000042
     12      -0.022641  -0.022538  -0.039527  -0.409706  -0.616959  -0.021749
     13      -0.008092  -0.007247  -0.005832  -0.120564  -0.204333  -0.006288
     14      -0.011906  -0.008558  -0.016775  -0.159550  -0.235862  -0.007812
     15      -0.009020  -0.001834   0.052086   0.091839  -0.154045  -0.011788
     16       0.026943   0.003732  -0.118920  -0.206283   0.401199   0.033089
     17      -0.034555  -0.003505   0.170236   0.306832  -0.551653  -0.047129
     18       0.005053   0.000061   0.013834   0.059545   0.008079  -0.004304
     19      -0.046996  -0.007120  -0.207561  -0.707531   0.012539   0.034980
     20      -0.013567  -0.001291  -0.068523  -0.230266   0.014222   0.013125
     21      -0.025956  -0.009558  -0.021411   0.008897  -0.002754  -0.002496
     22       0.636637   0.234855   0.620423  -0.203209   0.041596   0.118782
     23       0.190697   0.072312   0.202883  -0.066415   0.012879   0.038326
     24       0.166073   0.049796  -0.165760   0.038932  -0.028822  -0.037972
     25      -0.383197  -0.104561   0.363795  -0.091038   0.066891   0.074834
     26       0.528822   0.147921  -0.531467   0.131217  -0.098280  -0.108702
     27      -0.078915   0.238606   0.012339  -0.010767   0.008016  -0.151868
     28       0.140744  -0.429596  -0.021986   0.020634  -0.017128   0.256348
     29      -0.208878   0.642626   0.037249  -0.032416   0.026707  -0.404296
     30      -0.010104   0.030004  -0.008852   0.003249  -0.004687   0.055967
     31      -0.151772   0.485988  -0.154113   0.080346  -0.074827   0.820741
     32      -0.024701   0.083349  -0.028753   0.014736  -0.013707   0.148019
     33       0.000000  -0.000008   0.000001  -0.000011   0.000007   0.000011
     34       0.000007  -0.000001   0.000006   0.000008  -0.000010  -0.000008
     35      -0.000015   0.000022   0.000002  -0.000007   0.000010  -0.000002


-----------
IR SPECTRUM
-----------

 Mode    freq (cm**-1)   T**2         TX         TY         TZ
-------------------------------------------------------------------
   6:        15.60    2.933975  (  1.631753  -0.138294  -0.502227)
   7:        34.84    6.197044  (  1.064747  -0.561222   2.179079)
   8:        72.58    7.531004  ( -0.704814   1.506441  -2.182860)
   9:       123.95    4.694152  ( -0.001820   1.526827  -1.537188)
  10:       215.55    1.778397  (  1.205508  -0.001087   0.570217)
  11:       252.20    0.912647  (  0.426905  -0.643932   0.561917)
  12:       311.26    4.073794  (  1.868843  -0.231196  -0.726477)
  13:       653.28   48.375242  (  5.010018  -0.349316  -4.811750)
  14:       751.53   11.591506  ( -1.110073   2.957745  -1.269247)
  15:       857.34    1.924378  ( -0.475447   1.157195  -0.599357)
  16:       915.89   20.702246  ( -4.507717  -0.413646  -0.460037)
  17:      1056.01    1.109555  ( -0.015866   1.052736   0.032414)
  18:      1071.78    3.377855  ( -1.782198   0.448652   0.018389)
  19:      1122.57    2.376901  ( -1.277658  -0.541467  -0.671791)
  20:      1227.42    8.686602  ( -2.108848   0.533906   1.988544)
  21:      1256.68   46.870581  (  5.650788  -1.211078  -3.670485)
  22:      1303.77    1.277574  (  0.817311  -0.546160  -0.557930)
  23:      1353.43   17.754855  ( -3.341499   0.660575   2.480500)
  24:      1384.77    0.799941  (  0.884776  -0.126804   0.032149)
  25:      1446.11    3.177081  (  1.779441  -0.094778  -0.041096)
  26:      1449.58    8.271432  (  0.314514   2.800071  -0.576295)
  27:      1459.13    2.272490  ( -0.762580   0.102489  -1.296325)
  28:      1470.55   10.088160  ( -2.035367  -0.926761  -2.255340)
  29:      3049.66   36.265097  ( -4.562826   1.286610   3.713537)
  30:      3066.30   42.774177  ( -2.027236   0.486096  -6.199048)
  31:      3079.32   53.958089  (  1.035957  -6.020570   4.078923)
  32:      3117.08   14.455446  (  1.132671  -2.822553   2.281600)
  33:      3144.41   38.319039  (  1.223911   6.068011  -0.018046)
  34:      3152.95   22.750540  (  2.832232  -1.098242   3.677345)
  35:      3172.98   29.334751  ( -0.362993  -0.713727  -5.356639)

The first frequency considered to be a vibration is 6
The total number of vibrations considered is 30


--------------------------
THERMOCHEMISTRY AT 298.15K
--------------------------

Temperature         ... 298.15 K
Pressure            ... 1.00 atm
Total Mass          ... 202.89 AMU

Throughout the following assumptions are being made:
  (1) The electronic state is orbitally nondegenerate
  (2) There are no thermally accessible electronically excited states
  (3) Hindered rotations indicated by low frequency modes are not
      treated as such but are treated as vibrations and this may
      cause some error
  (4) All equations used are the standard statistical mechanics
      equations for an ideal gas
  (5) All vibrations are strictly harmonic

freq.      15.60  E(vib)   ...       0.57 
freq.      34.84  E(vib)   ...       0.54 
freq.      72.58  E(vib)   ...       0.49 
freq.     123.95  E(vib)   ...       0.43 
freq.     215.55  E(vib)   ...       0.34 
freq.     252.20  E(vib)   ...       0.30 
freq.     311.26  E(vib)   ...       0.25 
freq.     653.28  E(vib)   ...       0.08 
freq.     751.53  E(vib)   ...       0.06 
freq.     857.34  E(vib)   ...       0.04 
freq.     915.89  E(vib)   ...       0.03 
freq.    1056.01  E(vib)   ...       0.02 
freq.    1071.78  E(vib)   ...       0.02 
freq.    1122.57  E(vib)   ...       0.01 
freq.    1227.42  E(vib)   ...       0.01 
freq.    1256.68  E(vib)   ...       0.01 
freq.    1303.77  E(vib)   ...       0.01 
freq.    1353.43  E(vib)   ...       0.01 
freq.    1384.77  E(vib)   ...       0.00 
freq.    1446.11  E(vib)   ...       0.00 
freq.    1449.58  E(vib)   ...       0.00 
freq.    1459.13  E(vib)   ...       0.00 
freq.    1470.55  E(vib)   ...       0.00 
freq.    3049.66  E(vib)   ...       0.00 
freq.    3066.30  E(vib)   ...       0.00 
freq.    3079.32  E(vib)   ...       0.00 
freq.    3117.08  E(vib)   ...       0.00 
freq.    3144.41  E(vib)   ...       0.00 
freq.    3152.95  E(vib)   ...       0.00 
freq.    3172.98  E(vib)   ...       0.00 

------------
INNER ENERGY
------------

The inner energy is: U= E(el) + E(ZPE) + E(vib) + E(rot) + E(trans)
    E(el)   - is the total energy from the electronic structure calculation
              = E(kin-el) + E(nuc-el) + E(el-el) + E(nuc-nuc)
    E(ZPE)  - the the zero temperature vibrational energy from the frequency calculation
    E(vib)  - the the finite temperature correction to E(ZPE) due to population
              of excited vibrational states
    E(rot)  - is the rotational thermal energy
    E(trans)- is the translational thermal energy

Summary of contributions to the inner energy U:
Electronic energy                ...  -5265.58093157 Eh
Zero point energy                ...      0.09474565 Eh      59.45 kcal/mol
Thermal vibrational correction   ...      0.00518192 Eh       3.25 kcal/mol
Thermal rotational correction    ...      0.00141627 Eh       0.89 kcal/mol
Thermal translational correction ...      0.00141627 Eh       0.89 kcal/mol
-----------------------------------------------------------------------
Total thermal energy                  -5265.47817145 Eh


Summary of corrections to the electronic energy:
(perhaps to be used in another calculation)
Total thermal correction                  0.00801447 Eh       5.03 kcal/mol
Non-thermal (ZPE) correction              0.09474565 Eh      59.45 kcal/mol
-----------------------------------------------------------------------
Total correction                          0.10276012 Eh      64.48 kcal/mol


--------
ENTHALPY
--------

The enthalpy is H = U + kB*T
                kB is Boltzmann's constant
Total free energy                 ...  -5265.47817145 Eh 
Thermal Enthalpy correction       ...      0.00094421 Eh       0.59 kcal/mol
-----------------------------------------------------------------------
Total Enthalpy                    ...  -5265.47722724 Eh


Note: Only C1 symmetry has been detected, increase convergence thresholds 
      if your molecule has a higher symmetry. Symmetry factor of 1.0 is   
      used for the rotational entropy correction. 
 

Note: Rotational entropy computed according to Herzberg 
Infrared and Raman Spectra, Chapter V,1, Van Nostrand Reinhold, 1945 
Point Group:  C1, Symmetry Number:   1  
Rotational constants in cm-1:     0.061837     0.016881     0.013477 

Vibrational entropy computed according to the QRRHO of S. Grimme
Chem.Eur.J. 2012 18 9955


-------
ENTROPY
-------

The entropy contributions are T*S = T*(S(el)+S(vib)+S(rot)+S(trans))
     S(el)   - electronic entropy
     S(vib)  - vibrational entropy
     S(rot)  - rotational entropy
     S(trans)- translational entropy
The entropies will be listed as mutliplied by the temperature to get
units of energy

Electronic entropy                ...      0.00000000 Eh      0.00 kcal/mol
Vibrational entropy               ...      0.01012532 Eh      6.35 kcal/mol
Rotational entropy                ...      0.01478480 Eh      9.28 kcal/mol
Translational entropy             ...      0.01987324 Eh     12.47 kcal/mol
-----------------------------------------------------------------------
Final entropy term                ...      0.04478336 Eh     28.10 kcal/mol

In case the symmetry of your molecule has not been determined correctly
or in case you have a reason to use a different symmetry number we print 
out the resulting rotational entropy values for sn=1,12 :
 --------------------------------------------------------
|  sn= 1 | S(rot)=       0.01478480 Eh      9.28 kcal/mol|
|  sn= 2 | S(rot)=       0.01413035 Eh      8.87 kcal/mol|
|  sn= 3 | S(rot)=       0.01374751 Eh      8.63 kcal/mol|
|  sn= 4 | S(rot)=       0.01347589 Eh      8.46 kcal/mol|
|  sn= 5 | S(rot)=       0.01326520 Eh      8.32 kcal/mol|
|  sn= 6 | S(rot)=       0.01309306 Eh      8.22 kcal/mol|
|  sn= 7 | S(rot)=       0.01294751 Eh      8.12 kcal/mol|
|  sn= 8 | S(rot)=       0.01282143 Eh      8.05 kcal/mol|
|  sn= 9 | S(rot)=       0.01271023 Eh      7.98 kcal/mol|
|  sn=10 | S(rot)=       0.01261075 Eh      7.91 kcal/mol|
|  sn=11 | S(rot)=       0.01252076 Eh      7.86 kcal/mol|
|  sn=12 | S(rot)=       0.01243860 Eh      7.81 kcal/mol|
 --------------------------------------------------------


-------------------
GIBBS FREE ENERGY
-------------------

The Gibbs free energy is G = H - T*S

Total enthalpy                    ...  -5265.47722724 Eh 
Total entropy correction          ...     -0.04478336 Eh    -28.10 kcal/mol
-----------------------------------------------------------------------
Final Gibbs free energy         ...  -5265.52201060 Eh

For completeness - the Gibbs free energy minus the electronic energy
G-E(el)                           ...      0.05892097 Eh     36.97 kcal/mol

[1631286112.882100] [comp0802:208817:0]            sys.c:618  UCX  ERROR shmget(size=2097152 flags=0xfb0) for mm_recv_desc failed: Operation not permitted, please check shared memory limits by 'ipcs -l'
[1631286112.885882] [comp0802:208815:0]            sys.c:618  UCX  ERROR shmget(size=2097152 flags=0xfb0) for mm_recv_desc failed: Operation not permitted, please check shared memory limits by 'ipcs -l'
[1631286112.900665] [comp0802:208816:0]            sys.c:618  UCX  ERROR shmget(size=2097152 flags=0xfb0) for mm_recv_desc failed: Operation not permitted, please check shared memory limits by 'ipcs -l'
[1631286112.901490] [comp0802:208818:0]            sys.c:618  UCX  ERROR shmget(size=2097152 flags=0xfb0) for mm_recv_desc failed: Operation not permitted, please check shared memory limits by 'ipcs -l'
[1631286112.919495] [comp0802:208817:0]            sys.c:618  UCX  ERROR shmget(size=2097152 flags=0xb80) for ucp_am_bufs failed: Operation not permitted, please check shared memory limits by 'ipcs -l'
[1631286112.919493] [comp0802:208815:0]            sys.c:618  UCX  ERROR shmget(size=2097152 flags=0xb80) for ucp_am_bufs failed: Operation not permitted, please check shared memory limits by 'ipcs -l'
[1631286112.920303] [comp0802:208818:0]            sys.c:618  UCX  ERROR shmget(size=2097152 flags=0xb80) for ucp_am_bufs failed: Operation not permitted, please check shared memory limits by 'ipcs -l'
[1631286112.922504] [comp0802:208816:0]            sys.c:618  UCX  ERROR shmget(size=2097152 flags=0xb80) for ucp_am_bufs failed: Operation not permitted, please check shared memory limits by 'ipcs -l'

Timings for individual modules:

Sum of individual times         ...       64.943 sec (=   1.082 min)
GTO integral calculation        ...        2.546 sec (=   0.042 min)   3.9 %
SCF iterations                  ...       12.130 sec (=   0.202 min)  18.7 %
Analytical frequency calculation...       50.266 sec (=   0.838 min)  77.4 %
                             ****ORCA TERMINATED NORMALLY****
TOTAL RUN TIME: 0 days 0 hours 1 minutes 7 seconds 898 msec
