
                                 *****************
                                 * O   R   C   A *
                                 *****************

           --- An Ab Initio, DFT and Semiempirical electronic structure package ---

                  #######################################################
                  #                        -***-                        #
                  #          Department of theory and spectroscopy      #
                  #               Directorship: Frank Neese             #
                  #        Max Planck Institute fuer Kohlenforschung    #
                  #                Kaiser Wilhelm Platz 1               #
                  #                 D-45470 Muelheim/Ruhr               #
                  #                      Germany                        #
                  #                                                     #
                  #                  All rights reserved                #
                  #                        -***-                        #
                  #######################################################


                         Program Version 4.2.1 -  RELEASE  -


 With contributions from (in alphabetic order):
   Daniel Aravena         : Magnetic Suceptibility
   Michael Atanasov       : Ab Initio Ligand Field Theory (pilot matlab implementation)
   Alexander A. Auer      : GIAO ZORA, VPT2
   Ute Becker             : Parallelization
   Giovanni Bistoni       : ED, misc. LED, open-shell LED, HFLD
   Martin Brehm           : Molecular dynamics
   Dmytro Bykov           : SCF Hessian
   Vijay G. Chilkuri      : MRCI spin determinant printing, contributions to CSF-ICE
   Dipayan Datta          : RHF DLPNO-CCSD density
   Achintya Kumar Dutta   : EOM-CC, STEOM-CC
   Dmitry Ganyushin       : Spin-Orbit,Spin-Spin,Magnetic field MRCI
   Miquel Garcia          : C-PCM Hessian, Gaussian charge scheme
   Yang Guo               : DLPNO-NEVPT2, CIM, IAO-localization
   Andreas Hansen         : Spin unrestricted coupled pair/coupled cluster methods
   Benjamin Helmich-Paris : CASSCF linear response (MC-RPA)
   Lee Huntington         : MR-EOM, pCC
   Robert Izsak           : Overlap fitted RIJCOSX, COSX-SCS-MP3, EOM
   Christian Kollmar      : KDIIS, OOCD, Brueckner-CCSD(T), CCSD density
   Simone Kossmann        : Meta GGA functionals, TD-DFT gradient, OOMP2, MP2 Hessian
   Martin Krupicka        : AUTO-CI
   Lucas Lang             : DCDCAS
   Dagmar Lenk            : GEPOL surface, SMD
   Dimitrios Liakos       : Extrapolation schemes; Compound Job, initial MDCI parallelization
   Dimitrios Manganas     : Further ROCIS development; embedding schemes
   Dimitrios Pantazis     : SARC Basis sets
   Taras Petrenko         : DFT Hessian,TD-DFT gradient, ASA, ECA, R-Raman, ABS, FL, XAS/XES, NRVS
   Peter Pinski           : DLPNO-MP2, DLPNO-MP2 Gradient
   Christoph Reimann      : Effective Core Potentials
   Marius Retegan         : Local ZFS, SOC
   Christoph Riplinger    : Optimizer, TS searches, QM/MM, DLPNO-CCSD(T), (RO)-DLPNO pert. Triples
   Tobias Risthaus        : Range-separated hybrids, TD-DFT gradient, RPA, STAB
   Michael Roemelt        : Original ROCIS implementation
   Masaaki Saitow         : Open-shell DLPNO-CCSD energy and density
   Barbara Sandhoefer     : DKH picture change effects
   Avijit Sen             : IP-ROCIS
   Kantharuban Sivalingam : CASSCF convergence, NEVPT2, FIC-MRCI
   Bernardo de Souza      : ESD, SOC TD-DFT
   Georgi Stoychev        : AutoAux, RI-MP2 NMR
   Willem Van den Heuvel  : Paramagnetic NMR
   Boris Wezisla          : Elementary symmetry handling
   Frank Wennmohs         : Technical directorship


 We gratefully acknowledge several colleagues who have allowed us to
 interface, adapt or use parts of their codes:
   Stefan Grimme, W. Hujo, H. Kruse,             : VdW corrections, initial TS optimization,
                  C. Bannwarth                     DFT functionals, gCP, sTDA/sTD-DF
   Ed Valeev, F. Pavosevic, A. Kumar             : LibInt (2-el integral package), F12 methods
   Garnet Chan, S. Sharma, J. Yang, R. Olivares  : DMRG
   Ulf Ekstrom                                   : XCFun DFT Library
   Mihaly Kallay                                 : mrcc  (arbitrary order and MRCC methods)
   Andreas Klamt, Michael Diedenhofen            : otool_cosmo (COSMO solvation model)
   Jiri Pittner, Ondrej Demel                    : Mk-CCSD
   Frank Weinhold                                : gennbo (NPA and NBO analysis)
   Christopher J. Cramer and Donald G. Truhlar   : smd solvation model
   Lars Goerigk                                  : TD-DFT with DH, B97 family of functionals
   V. Asgeirsson, H. Jonsson                     : NEB implementation
   FAccTs GmbH                                   : IRC, NEB, NEB-TS, Multilevel, MM, QM/MM, CI optimization
   S Lehtola, MJT Oliveira, MAL Marques          : LibXC Library


 Your calculation uses the libint2 library for the computation of 2-el integrals
 For citations please refer to: http://libint.valeyev.net

 Your ORCA version has been built with support for libXC version: 4.2.3
 For citations please refer to: https://tddft.org/programs/libxc/

 This ORCA versions uses:
   CBLAS   interface :  Fast vector & matrix operations
   LAPACKE interface :  Fast linear algebra routines
   SCALAPACK package :  Parallel linear algebra routines


Your calculation utilizes the atom-pairwise dispersion correction
with the Becke-Johnson damping scheme (D3BJ)
Cite in your paper:
S.Grimme, S.Ehrlich, L.Goerigk, J Comput Chem, (2011), 32, 1456–1465 
S.Grimme, J.Antony, S.Ehrlich and H.Krieg, J.Chem.Phys., 132, (2010), 154104 
   

----- Orbital basis set information -----
Your calculation utilizes the basis: def2-SVP
   F. Weigend and R. Ahlrichs, Phys. Chem. Chem. Phys. 7, 3297 (2005).

----- AuxJ basis set information -----
Your calculation utilizes the auxiliary basis: def2/J
   F. Weigend, Phys. Chem. Chem. Phys. 8, 1057 (2006).

================================================================================
                                        WARNINGS
                       Please study these warnings very carefully!
================================================================================


INFO   : the flag for use of LIBINT has been found!

================================================================================
                                       INPUT FILE
================================================================================
NAME = manual_reactants_345_freq.inp
|  1> ! Freq PBE0 RIJCOSX D3BJ def2-SVP def2/J CPCM(DMF)
|  2> %geom MaxIter 100 end
|  3> %output 
|  4> xyzfile=True 
|  5> end 
|  6> %scf 
|  7> maxiter 250 
|  8> end
|  9> %output
| 10> Print[P_Hirshfeld] = 1
| 11> end
| 12> % maxcore
| 13> 4000
| 14> %pal nprocs 4
| 15> end
| 16> *xyz -1 1
| 17>   C   1.08703910089457     -0.61784529525553      1.12929323184767
| 18>   C   0.23916291012256     -0.59829919346874     -0.14774930609674
| 19>   C   1.14814828236460     -0.54186383417019     -1.37441447520342
| 20>   C   -0.62638661892706     -1.85681921693171     -0.19686196900493
| 21>   C   -0.61780478366297      0.66120317862737     -0.05148566580328
| 22>   Br  -1.77775488010328      0.97731595768148     -1.60620328159362
| 23>   H   0.46500088356725     -0.65796710296079      2.03657234548968
| 24>   H   1.74497031887200     -1.49876375691643      1.15895856709314
| 25>   H   1.73651928574639      0.26693841362250      1.21330950240572
| 26>   H   0.55915656626229     -0.55418852027227     -2.30436636246015
| 27>   H   1.82626187551327     -1.40933311524485     -1.38930099330721
| 28>   H   1.76379853918479      0.37226445750129     -1.37241139795702
| 29>   H   -1.26564730004883     -1.87014248399097     -1.09355967936359
| 30>   H   -1.27843056324233     -1.92829166041840      0.68882326567781
| 31>   H   0.01403904077846     -2.75282048476135     -0.22068989677533
| 32>   H   -1.30259173264883      0.62216239124371      0.80639722629980
| 33>   H   0.00472859222943      1.56275730820773      0.02447479812327
| 34>   Cl  3.18107048309771     -1.13791704249283      3.90307409062819
| 35> *
| 36> 
| 37>                          ****END OF INPUT****
================================================================================

                       ****************************
                       * Single Point Calculation *
                       ****************************

---------------------------------
CARTESIAN COORDINATES (ANGSTROEM)
---------------------------------
  C      1.087039   -0.617845    1.129293
  C      0.239163   -0.598299   -0.147749
  C      1.148148   -0.541864   -1.374414
  C     -0.626387   -1.856819   -0.196862
  C     -0.617805    0.661203   -0.051486
  Br    -1.777755    0.977316   -1.606203
  H      0.465001   -0.657967    2.036572
  H      1.744970   -1.498764    1.158959
  H      1.736519    0.266938    1.213310
  H      0.559157   -0.554189   -2.304366
  H      1.826262   -1.409333   -1.389301
  H      1.763799    0.372264   -1.372411
  H     -1.265647   -1.870142   -1.093560
  H     -1.278431   -1.928292    0.688823
  H      0.014039   -2.752820   -0.220690
  H     -1.302592    0.622162    0.806397
  H      0.004729    1.562757    0.024475
  Cl     3.181070   -1.137917    3.903074

----------------------------
CARTESIAN COORDINATES (A.U.)
----------------------------
  NO LB      ZA    FRAG     MASS         X           Y           Z
   0 C     6.0000    0    12.011    2.054206   -1.167558    2.134055
   1 C     6.0000    0    12.011    0.451952   -1.130622   -0.279206
   2 C     6.0000    0    12.011    2.169686   -1.023974   -2.597267
   3 C     6.0000    0    12.011   -1.183699   -3.508880   -0.372015
   4 C     6.0000    0    12.011   -1.167482    1.249493   -0.097294
   5 Br   35.0000    0    79.900   -3.359470    1.846860   -3.035284
   6 H     1.0000    0     1.008    0.878724   -1.243378    3.848564
   7 H     1.0000    0     1.008    3.297516   -2.832253    2.190114
   8 H     1.0000    0     1.008    3.281546    0.504440    2.292823
   9 H     1.0000    0     1.008    1.056653   -1.047265   -4.354621
  10 H     1.0000    0     1.008    3.451135   -2.663254   -2.625398
  11 H     1.0000    0     1.008    3.333096    0.703478   -2.593482
  12 H     1.0000    0     1.008   -2.391727   -3.534057   -2.066528
  13 H     1.0000    0     1.008   -2.415884   -3.643943    1.301687
  14 H     1.0000    0     1.008    0.026530   -5.202077   -0.417043
  15 H     1.0000    0     1.008   -2.461542    1.175717    1.523870
  16 H     1.0000    0     1.008    0.008936    2.953183    0.046251
  17 Cl   17.0000    0    35.453    6.011352   -2.150352    7.375741

--------------------------------
INTERNAL COORDINATES (ANGSTROEM)
--------------------------------
 C      0   0   0     0.000000000000     0.00000000     0.00000000
 C      1   0   0     1.533008065436     0.00000000     0.00000000
 C      2   1   0     1.527791475899   109.89196164     0.00000000
 C      2   1   3     1.528221414047   109.23982978   120.73334260
 C      2   1   3     1.526435895133   105.57471633   240.53681833
 Br     5   2   1     1.965339253198   114.46761496   178.03725560
 H      1   2   3     1.100770954068   111.99493525   179.97077907
 H      1   2   3     1.099895838614   111.31644461   299.27299524
 H      1   2   3     1.100784018657   112.31250355    58.95535716
 H      3   2   1     1.100851330624   111.07045855   178.48488030
 H      3   2   1     1.101164205395   110.37384887    58.70974002
 H      3   2   1     1.102116048643   111.19432155   298.83992693
 H      4   2   1     1.101316717223   111.40038784   178.94293220
 H      4   2   1     1.102137899916   111.26347566    58.28470960
 H      4   2   1     1.101603861514   109.95280022   298.71115383
 H      5   2   1     1.098371706274   111.71236111   296.95008579
 H      5   2   1     1.098233875248   111.31402849    59.29275922
 Cl     8   1   2     3.118134705157   101.92016417   181.26107938

---------------------------
INTERNAL COORDINATES (A.U.)
---------------------------
 C      0   0   0     0.000000000000     0.00000000     0.00000000
 C      1   0   0     2.896965404767     0.00000000     0.00000000
 C      2   1   0     2.887107479188   109.89196164     0.00000000
 C      2   1   3     2.887919944544   109.23982978   120.73334260
 C      2   1   3     2.884545802788   105.57471633   240.53681833
 Br     5   2   1     3.713952948790   114.46761496   178.03725560
 H      1   2   3     2.080155639364   111.99493525   179.97077907
 H      1   2   3     2.078501910819   111.31644461   299.27299524
 H      1   2   3     2.080180327858   112.31250355    58.95535716
 H      3   2   1     2.080307529042   111.07045855   178.48488030
 H      3   2   1     2.080898776673   110.37384887    58.70974002
 H      3   2   1     2.082697499734   111.19432155   298.83992693
 H      4   2   1     2.081186982262   111.40038784   178.94293220
 H      4   2   1     2.082738792656   111.26347566    58.28470960
 H      4   2   1     2.081729606332   109.95280022   298.71115383
 H      5   2   1     2.075621718106   111.71236111   296.95008579
 H      5   2   1     2.075361255215   111.31402849    59.29275922
 Cl     8   1   2     5.892420641422   101.92016417   181.26107938

---------------------
BASIS SET INFORMATION
---------------------
There are 4 groups of distinct atoms

 Group   1 Type C   : 7s4p1d contracted to 3s2p1d pattern {511/31/1}
 Group   2 Type Br  : 14s10p6d contracted to 5s4p3d pattern {63311/5311/411}
 Group   3 Type H   : 4s1p contracted to 2s1p pattern {31/1}
 Group   4 Type Cl  : 10s7p1d contracted to 4s3p1d pattern {5311/511/1}

Atom   0C    basis set group =>   1
Atom   1C    basis set group =>   1
Atom   2C    basis set group =>   1
Atom   3C    basis set group =>   1
Atom   4C    basis set group =>   1
Atom   5Br   basis set group =>   2
Atom   6H    basis set group =>   3
Atom   7H    basis set group =>   3
Atom   8H    basis set group =>   3
Atom   9H    basis set group =>   3
Atom  10H    basis set group =>   3
Atom  11H    basis set group =>   3
Atom  12H    basis set group =>   3
Atom  13H    basis set group =>   3
Atom  14H    basis set group =>   3
Atom  15H    basis set group =>   3
Atom  16H    basis set group =>   3
Atom  17Cl   basis set group =>   4
---------------------------------
AUXILIARY/J BASIS SET INFORMATION
---------------------------------
There are 4 groups of distinct atoms

 Group   1 Type C   : 12s5p4d2f1g contracted to 6s4p3d1f1g pattern {711111/2111/211/2/1}
 Group   2 Type Br  : 19s5p5d3f1g contracted to 8s4p3d2f1g pattern {121111111/2111/311/21/1}
 Group   3 Type H   : 5s2p1d contracted to 3s1p1d pattern {311/2/1}
 Group   4 Type Cl  : 14s5p5d2f1g contracted to 8s4p3d1f1g pattern {71111111/2111/311/2/1}

Atom   0C    basis set group =>   1
Atom   1C    basis set group =>   1
Atom   2C    basis set group =>   1
Atom   3C    basis set group =>   1
Atom   4C    basis set group =>   1
Atom   5Br   basis set group =>   2
Atom   6H    basis set group =>   3
Atom   7H    basis set group =>   3
Atom   8H    basis set group =>   3
Atom   9H    basis set group =>   3
Atom  10H    basis set group =>   3
Atom  11H    basis set group =>   3
Atom  12H    basis set group =>   3
Atom  13H    basis set group =>   3
Atom  14H    basis set group =>   3
Atom  15H    basis set group =>   3
Atom  16H    basis set group =>   3
Atom  17Cl   basis set group =>   4
[1631721878.524987] [comp0807:16387:0]            sys.c:618  UCX  ERROR shmget(size=2097152 flags=0xfb0) for mm_recv_desc failed: Operation not permitted, please check shared memory limits by 'ipcs -l'
[1631721878.525468] [comp0807:16386:0]            sys.c:618  UCX  ERROR shmget(size=2097152 flags=0xfb0) for mm_recv_desc failed: Operation not permitted, please check shared memory limits by 'ipcs -l'
[1631721878.526044] [comp0807:16385:0]            sys.c:618  UCX  ERROR shmget(size=2097152 flags=0xfb0) for mm_recv_desc failed: Operation not permitted, please check shared memory limits by 'ipcs -l'
[1631721878.530159] [comp0807:16388:0]            sys.c:618  UCX  ERROR shmget(size=2097152 flags=0xfb0) for mm_recv_desc failed: Operation not permitted, please check shared memory limits by 'ipcs -l'
[1631721878.535895] [comp0807:16387:0]            sys.c:618  UCX  ERROR shmget(size=2097152 flags=0xb80) for ucp_am_bufs failed: Operation not permitted, please check shared memory limits by 'ipcs -l'
[1631721878.535903] [comp0807:16388:0]            sys.c:618  UCX  ERROR shmget(size=2097152 flags=0xb80) for ucp_am_bufs failed: Operation not permitted, please check shared memory limits by 'ipcs -l'
[1631721878.536615] [comp0807:16385:0]            sys.c:618  UCX  ERROR shmget(size=2097152 flags=0xb80) for ucp_am_bufs failed: Operation not permitted, please check shared memory limits by 'ipcs -l'
[1631721878.541477] [comp0807:16386:0]            sys.c:618  UCX  ERROR shmget(size=2097152 flags=0xb80) for ucp_am_bufs failed: Operation not permitted, please check shared memory limits by 'ipcs -l'


           ************************************************************
           *        Program running with 4 parallel MPI-processes     *
           *              working on a common directory               *
           ************************************************************
------------------------------------------------------------------------------
                           ORCA GTO INTEGRAL CALCULATION
                           -- RI-GTO INTEGRALS CHOSEN --
------------------------------------------------------------------------------

                         BASIS SET STATISTICS AND STARTUP INFO

Gaussian basis set:
 # of primitive gaussian shells          ...  163
 # of primitive gaussian functions       ...  307
 # of contracted shells                  ...   83
 # of contracted basis functions         ...  175
 Highest angular momentum                ...    2
 Maximum contraction depth               ...    6
Auxiliary gaussian basis set:
 # of primitive gaussian shells          ...  268
 # of primitive gaussian functions       ...  692
 # of contracted shells                  ...  165
 # of contracted aux-basis functions     ...  475
 Highest angular momentum                ...    4
 Maximum contraction depth               ...   12
Ratio of auxiliary to basis functions    ...  2.71
Integral package used                  ... LIBINT
 One Electron integrals                  ... done
 Ordering auxiliary basis shells         ... done
 Integral threshhold             Thresh  ...  1.000e-10
 Primitive cut-off               TCut    ...  1.000e-11
 Pre-screening matrix                    ... done
 Shell pair data                         ... 
 Ordering of the shell pairs             ... done (   0.000 sec) 3118 of 3486 pairs
 Determination of significant pairs      ... done (   0.000 sec)
 Creation of shell pair data             ... done (   0.000 sec)
 Storage of shell pair data              ... done (   0.025 sec)
 Shell pair data done in (   0.026 sec)
 Computing two index integrals           ... done
 Cholesky decomposition of the V-matrix  ... done


Timings:
 Total evaluation time                   ...   0.211 sec (  0.004 min)
 One electron matrix time                ...   0.048 sec (  0.001 min) = 22.5%
 Schwartz matrix evaluation time         ...   0.112 sec (  0.002 min) = 53.1%
 Two index repulsion integral time       ...   0.005 sec (  0.000 min) =  2.5%
 Cholesky decomposition of V             ...   0.004 sec (  0.000 min) =  1.7%
 Three index repulsion integral time     ...   0.000 sec (  0.000 min) =  0.0%

[1631721879.664454] [comp0807:16447:0]            sys.c:618  UCX  ERROR shmget(size=2097152 flags=0xfb0) for mm_recv_desc failed: Operation not permitted, please check shared memory limits by 'ipcs -l'
[1631721879.698011] [comp0807:16450:0]            sys.c:618  UCX  ERROR shmget(size=2097152 flags=0xfb0) for mm_recv_desc failed: Operation not permitted, please check shared memory limits by 'ipcs -l'
[1631721879.698259] [comp0807:16449:0]            sys.c:618  UCX  ERROR shmget(size=2097152 flags=0xfb0) for mm_recv_desc failed: Operation not permitted, please check shared memory limits by 'ipcs -l'
[1631721879.699177] [comp0807:16451:0]            sys.c:618  UCX  ERROR shmget(size=2097152 flags=0xfb0) for mm_recv_desc failed: Operation not permitted, please check shared memory limits by 'ipcs -l'
[1631721879.707607] [comp0807:16450:0]            sys.c:618  UCX  ERROR shmget(size=2097152 flags=0xb80) for ucp_am_bufs failed: Operation not permitted, please check shared memory limits by 'ipcs -l'
[1631721879.707641] [comp0807:16447:0]            sys.c:618  UCX  ERROR shmget(size=2097152 flags=0xb80) for ucp_am_bufs failed: Operation not permitted, please check shared memory limits by 'ipcs -l'
[1631721879.708324] [comp0807:16451:0]            sys.c:618  UCX  ERROR shmget(size=2097152 flags=0xb80) for ucp_am_bufs failed: Operation not permitted, please check shared memory limits by 'ipcs -l'


           ************************************************************
           *        Program running with 4 parallel MPI-processes     *
           *              working on a common directory               *
           ************************************************************
[1631721879.711241] [comp0807:16449:0]            sys.c:618  UCX  ERROR shmget(size=2097152 flags=0xb80) for ucp_am_bufs failed: Operation not permitted, please check shared memory limits by 'ipcs -l'
-------------------------------------------------------------------------------
                                 ORCA SCF
-------------------------------------------------------------------------------

------------
SCF SETTINGS
------------
Hamiltonian:
 Density Functional     Method          .... DFT(GTOs)
 Exchange Functional    Exchange        .... PBE
   PBE kappa parameter   XKappa         ....  0.804000
   PBE mue parameter    XMuePBE         ....  0.219520
 Correlation Functional Correlation     .... PBE
   PBE beta parameter  CBetaPBE         ....  0.066725
 LDA part of GGA corr.  LDAOpt          .... PW91-LDA
 Gradients option       PostSCFGGA      .... off
 Hybrid DFT is turned on
   Fraction HF Exchange ScalHFX         ....  0.250000
   Scaling of DF-GGA-X  ScalDFX         ....  0.750000
   Scaling of DF-GGA-C  ScalDFC         ....  1.000000
   Scaling of DF-LDA-C  ScalLDAC        ....  1.000000
   Perturbative correction              ....  0.000000
   Density functional embedding theory  .... OFF
   NL short-range parameter             ....  6.900000
 RI-approximation to the Coulomb term is turned on
   Number of auxiliary basis functions  .... 475
   RIJ-COSX (HFX calculated with COS-X)).... on


General Settings:
 Integral files         IntName         .... manual_reactants_345_freq
 Hartree-Fock type      HFTyp           .... RHF
 Total Charge           Charge          ....   -1
 Multiplicity           Mult            ....    1
 Number of Electrons    NEL             ....   94
 Basis Dimension        Dim             ....  175
 Nuclear Repulsion      ENuc            ....    549.8123288156 Eh

Convergence Acceleration:
 DIIS                   CNVDIIS         .... on
   Start iteration      DIISMaxIt       ....    12
   Startup error        DIISStart       ....  0.200000
   # of expansion vecs  DIISMaxEq       ....     5
   Bias factor          DIISBfac        ....   1.050
   Max. coefficient     DIISMaxC        ....  10.000
 Newton-Raphson         CNVNR           .... off
 SOSCF                  CNVSOSCF        .... on
   Start iteration      SOSCFMaxIt      ....   150
   Startup grad/error   SOSCFStart      ....  0.003300
 Level Shifting         CNVShift        .... on
   Level shift para.    LevelShift      ....    0.2500
   Turn off err/grad.   ShiftErr        ....    0.0010
 Zerner damping         CNVZerner       .... off
 Static damping         CNVDamp         .... on
   Fraction old density DampFac         ....    0.7000
   Max. Damping (<1)    DampMax         ....    0.9800
   Min. Damping (>=0)   DampMin         ....    0.0000
   Turn off err/grad.   DampErr         ....    0.1000
 Fernandez-Rico         CNVRico         .... off

SCF Procedure:
 Maximum # iterations   MaxIter         ....   250
 SCF integral mode      SCFMode         .... Direct
   Integral package                     .... LIBINT
 Reset frequency        DirectResetFreq ....    20
 Integral Threshold     Thresh          ....  1.000e-10 Eh
 Primitive CutOff       TCut            ....  1.000e-11 Eh

Convergence Tolerance:
 Convergence Check Mode ConvCheckMode   .... Total+1el-Energy
 Convergence forced     ConvForced      .... 0
 Energy Change          TolE            ....  1.000e-06 Eh
 1-El. energy change                    ....  1.000e-03 Eh
 Orbital Gradient       TolG            ....  5.000e-05
 Orbital Rotation angle TolX            ....  5.000e-05
 DIIS Error             TolErr          ....  1.000e-06


Diagonalization of the overlap matrix:
Smallest eigenvalue                        ... 1.540e-03
Time for diagonalization                   ...    0.005 sec
Threshold for overlap eigenvalues          ... 1.000e-08
Number of eigenvalues below threshold      ... 0
Time for construction of square roots      ...    0.002 sec
Total time needed                          ...    0.008 sec

-------------------
DFT GRID GENERATION
-------------------

General Integration Accuracy     IntAcc      ...  4.340
Radial Grid Type                 RadialGrid  ... Gauss-Chebyshev
Angular Grid (max. acc.)         AngularGrid ... Lebedev-110
Angular grid pruning method      GridPruning ... 3 (G Style)
Weight generation scheme         WeightScheme... Becke
Basis function cutoff            BFCut       ...    1.0000e-10
Integration weight cutoff        WCut        ...    1.0000e-14
Grids for H and He will be reduced by one unit

# of grid points (after initial pruning)     ...  21748 (   0.0 sec)
# of grid points (after weights+screening)   ...  20099 (   0.0 sec)
nearest neighbour list constructed           ...    0.0 sec
Grid point re-assignment to atoms done       ...    0.0 sec
Grid point division into batches done        ...    0.0 sec
Reduced shell lists constructed in    0.0 sec

Total number of grid points                  ...    20099
Total number of batches                      ...      325
Average number of points per batch           ...       61
Average number of grid points per atom       ...     1117
Average number of shells per batch           ...    62.84 (75.71%)
Average number of basis functions per batch  ...   129.83 (74.19%)
Average number of large shells per batch     ...    51.20 (81.48%)
Average number of large basis fcns per batch ...   102.89 (79.25%)
Maximum spatial batch extension              ...  14.27, 18.48, 19.62 au
Average spatial batch extension              ...   0.58,  0.59,  0.60 au

Time for grid setup =    0.109 sec

------------------------------
INITIAL GUESS: MODEL POTENTIAL
------------------------------
Loading Hartree-Fock densities                     ... done
Calculating cut-offs                               ... done
Setting up the integral package                    ... done
Initializing the effective Hamiltonian             ... done
Starting the Coulomb interaction                   ... done (   0.0 sec)
Reading the grid                                   ... done
Mapping shells                                     ... done
Starting the XC term evaluation                    ... done (   0.1 sec)
  promolecular density results
     # of electrons  =     93.011544453
     EX              =   -145.427322136
     EC              =     -3.702165214
     EX+EC           =   -149.129487350
Transforming the Hamiltonian                       ... done (   0.0 sec)
Diagonalizing the Hamiltonian                      ... done (   0.0 sec)
Back transforming the eigenvectors                 ... done (   0.0 sec)
Now organizing SCF variables                       ... done
                      ------------------
                      INITIAL GUESS DONE (   0.3 sec)
                      ------------------
--------------------
COSX GRID GENERATION
--------------------

General Integration Accuracy     IntAcc      ...  3.340
Radial Grid Type                 RadialGrid  ... Gauss-Chebyshev
Angular Grid (max. acc.)         AngularGrid ... Lebedev-50
Angular grid pruning method      GridPruning ... 3 (G Style)
Weight generation scheme         WeightScheme... Becke
Basis function cutoff            BFCut       ...    1.0000e-10
Integration weight cutoff        WCut        ...    1.0000e-14
Grids for H and He will be reduced by one unit

# of grid points (after initial pruning)     ...   8168 (   0.0 sec)
# of grid points (after weights+screening)   ...   7549 (   0.0 sec)
nearest neighbour list constructed           ...    0.0 sec
Grid point re-assignment to atoms done       ...    0.0 sec
Grid point division into batches done        ...    0.0 sec
Reduced shell lists constructed in    0.0 sec

Total number of grid points                  ...     7549
Total number of batches                      ...      127
Average number of points per batch           ...       59
Average number of grid points per atom       ...      419
Average number of shells per batch           ...    64.67 (77.91%)
Average number of basis functions per batch  ...   134.55 (76.88%)
Average number of large shells per batch     ...    54.55 (84.35%)
Average number of large basis fcns per batch ...   110.61 (82.21%)
Maximum spatial batch extension              ...  15.20, 12.71, 12.22 au
Average spatial batch extension              ...   0.81,  0.79,  0.77 au

Overlap Fitting                  UseSFitting ... on
Constructing numerical overlap ... done (      0.0 sec)
Inverting numerical overlap    ... done (      0.0 sec)
Obtaining analytic overlap     ... done (      0.0 sec)
Final contraction and storage  ... done (      0.0 sec)


General Integration Accuracy     IntAcc      ...  3.670
Radial Grid Type                 RadialGrid  ... Gauss-Chebyshev
Angular Grid (max. acc.)         AngularGrid ... Lebedev-50
Angular grid pruning method      GridPruning ... 3 (G Style)
Weight generation scheme         WeightScheme... Becke
Basis function cutoff            BFCut       ...    1.0000e-10
Integration weight cutoff        WCut        ...    1.0000e-14
Grids for H and He will be reduced by one unit

# of grid points (after initial pruning)     ...  10378 (   0.0 sec)
# of grid points (after weights+screening)   ...   9560 (   0.0 sec)
nearest neighbour list constructed           ...    0.0 sec
Grid point re-assignment to atoms done       ...    0.0 sec
Grid point division into batches done        ...    0.0 sec
Reduced shell lists constructed in    0.0 sec

Total number of grid points                  ...     9560
Total number of batches                      ...      159
Average number of points per batch           ...       60
Average number of grid points per atom       ...      531
Average number of shells per batch           ...    64.56 (77.78%)
Average number of basis functions per batch  ...   134.02 (76.59%)
Average number of large shells per batch     ...    53.27 (82.51%)
Average number of large basis fcns per batch ...   106.59 (79.53%)
Maximum spatial batch extension              ...  15.43, 13.26, 13.42 au
Average spatial batch extension              ...   0.69,  0.72,  0.69 au

Overlap Fitting                  UseSFitting ... on
Constructing numerical overlap ... done (      0.0 sec)
Inverting numerical overlap    ... done (      0.0 sec)
Obtaining analytic overlap     ... done (      0.0 sec)
Final contraction and storage  ... done (      0.0 sec)


General Integration Accuracy     IntAcc      ...  4.010
Radial Grid Type                 RadialGrid  ... Gauss-Chebyshev
Angular Grid (max. acc.)         AngularGrid ... Lebedev-110
Angular grid pruning method      GridPruning ... 3 (G Style)
Weight generation scheme         WeightScheme... Becke
Basis function cutoff            BFCut       ...    1.0000e-10
Integration weight cutoff        WCut        ...    1.0000e-14
Grids for H and He will be reduced by one unit

# of grid points (after initial pruning)     ...  18926 (   0.0 sec)
# of grid points (after weights+screening)   ...  17535 (   0.0 sec)
nearest neighbour list constructed           ...    0.0 sec
Grid point re-assignment to atoms done       ...    0.0 sec
Grid point division into batches done        ...    0.0 sec
Reduced shell lists constructed in    0.0 sec

Total number of grid points                  ...    17535
Total number of batches                      ...      284
Average number of points per batch           ...       61
Average number of grid points per atom       ...      974
Average number of shells per batch           ...    63.35 (76.32%)
Average number of basis functions per batch  ...   131.26 (75.01%)
Average number of large shells per batch     ...    52.19 (82.39%)
Average number of large basis fcns per batch ...   105.28 (80.20%)
Maximum spatial batch extension              ...  13.57, 12.58, 15.20 au
Average spatial batch extension              ...   0.56,  0.59,  0.58 au

Overlap Fitting                  UseSFitting ... on
Constructing numerical overlap ... done (      0.0 sec)
Inverting numerical overlap    ... done (      0.0 sec)
Obtaining analytic overlap     ... done (      0.0 sec)
Final contraction and storage  ... done (      0.0 sec)

Time for X-Grid setup             =    0.248 sec

--------------------
CPCM SOLVATION MODEL
--------------------
CPCM parameters:
  Epsilon                                         ...      38.3000
  Refrac                                          ...       1.4300
  Rsolv                                           ...       1.3000
  Surface type                                    ...    GEPOL SES
  Epsilon function type                           ...         CPCM
Radii:
 Radius for C  used is    3.7795 Bohr (=   2.0000 Ang.)
 Radius for Br used is    4.0818 Bohr (=   2.1600 Ang.)
 Radius for H  used is    2.4566 Bohr (=   1.3000 Ang.)
 Radius for Cl used is    3.8739 Bohr (=   2.0500 Ang.)
Calculating surface                               ...        done! (  0.1s)
GEPOL surface points                              ...          806
GEPOL Volume                                      ...    1257.1879
GEPOL Surface-area                                ...     701.7613
Calculating surface distance matrix               ...        done! (  0.0s)
Performing Cholesky decomposition & store         ...        done! (  0.0s)
Overall time for CPCM initialization              ...                 0.1s
--------------
SCF ITERATIONS
--------------
ITER       Energy         Delta-E        Max-DP      RMS-DP      [F,P]     Damp
               ***  Starting incremental Fock matrix formation  ***
  0  -3230.1739739598   0.000000000000 0.11297493  0.00230560  0.1591741 0.7000
  1  -3230.2710806137  -0.097106653840 0.08011239  0.00174580  0.0955354 0.7000
                               ***Turning on DIIS***
  2  -3230.3136185714  -0.042537957745 0.14717172  0.00332905  0.0517110 0.0000
  3  -3230.3736967687  -0.060078197273 0.03973632  0.00105727  0.0456118 0.0000
  4  -3230.3897213974  -0.016024628692 0.01970631  0.00035495  0.0113386 0.0000
                      *** Initiating the SOSCF procedure ***
                           *** Shutting down DIIS ***
                      *** Re-Reading the Fockian *** 
                      *** Removing any level shift *** 
ITER      Energy       Delta-E        Grad      Rot      Max-DP    RMS-DP
  5  -3230.39048643  -0.0007650329  0.000896  0.000896  0.003653  0.000102
               *** Restarting incremental Fock matrix formation ***
  6  -3230.39049922  -0.0000127928  0.000426  0.000950  0.002301  0.000062
  7  -3230.39050166  -0.0000024359  0.000258  0.000194  0.000724  0.000016
  8  -3230.39050368  -0.0000020169  0.000030  0.000025  0.000143  0.000004
  9  -3230.39050360   0.0000000783  0.000021  0.000010  0.000048  0.000001
                 **** Energy Check signals convergence ****
              ***Rediagonalizing the Fockian in SOSCF/NRSCF***

               *****************************************************
               *                     SUCCESS                       *
               *           SCF CONVERGED AFTER  10 CYCLES          *
               *****************************************************

Setting up the final grid:

General Integration Accuracy     IntAcc      ...  4.670
Radial Grid Type                 RadialGrid  ... Gauss-Chebyshev
Angular Grid (max. acc.)         AngularGrid ... Lebedev-302
Angular grid pruning method      GridPruning ... 3 (G Style)
Weight generation scheme         WeightScheme... Becke
Basis function cutoff            BFCut       ...    1.0000e-10
Integration weight cutoff        WCut        ...    1.0000e-14
Grids for H and He will be reduced by one unit

# of grid points (after initial pruning)     ...  84748 (   0.0 sec)
# of grid points (after weights+screening)   ...  77097 (   0.1 sec)
nearest neighbour list constructed           ...    0.0 sec
Grid point re-assignment to atoms done       ...    0.0 sec
Grid point division into batches done        ...    0.3 sec
Reduced shell lists constructed in    0.4 sec

Total number of grid points                  ...    77097
Total number of batches                      ...     1214
Average number of points per batch           ...       63
Average number of grid points per atom       ...     4283
Average number of shells per batch           ...    60.87 (73.34%)
Average number of basis functions per batch  ...   125.41 (71.66%)
Average number of large shells per batch     ...    48.23 (79.23%)
Average number of large basis fcns per batch ...    96.00 (76.55%)
Maximum spatial batch extension              ...  15.48, 16.49, 17.58 au
Average spatial batch extension              ...   0.38,  0.38,  0.38 au

Final grid set up in    0.5 sec
Final integration                            ... done (   0.2 sec)
Change in XC energy                          ...     0.001360732
Integrated number of electrons               ...    94.000284520
Previous integrated no of electrons          ...    94.011602048
Old exchange energy                            =    -36.804499089 Eh
New exchange energy                            =    -36.802626886 Eh
Exchange energy change after final integration =      0.001872203 Eh
Total energy after final integration           =  -3230.387270796 Eh
Final COS-X integration done in                =     1.392 sec

----------------
TOTAL SCF ENERGY
----------------

Total Energy       :        -3230.38727080 Eh          -87903.30656 eV

Components:
Nuclear Repulsion  :          549.81232882 Eh           14961.15408 eV
Electronic Energy  :        -3780.19959961 Eh         -102864.46063 eV
One Electron Energy:        -5590.38505296 Eh         -152122.11103 eV
Two Electron Energy:         1810.18545335 Eh           49257.65040 eV
CPCM Dielectric    :           -0.11464253 Eh              -3.11958 eV

Virial components:
Potential Energy   :        -6455.01287645 Eh         -175649.83023 eV
Kinetic Energy     :         3224.62560565 Eh           87746.52368 eV
Virial Ratio       :            2.00178677


DFT components:
N(Alpha)           :       47.000142260001 electrons
N(Beta)            :       47.000142260001 electrons
N(Total)           :       94.000284520002 electrons
E(X)               :     -109.857099874232 Eh       
E(C)               :       -3.753325431234 Eh       
E(XC)              :     -113.610425305466 Eh       
DFET-embed. en.    :        0.000000000000 Eh       
CPCM Solvation Model Properties:
Surface-charge          :            0.97645449
Charge-correction       :           -0.00331063 Eh              -0.09009 eV
Free-energy (cav+disp)  :            0.00422336 Eh               0.11492 eV
Corrected G(solv)       :        -3230.38635806 Eh          -87903.28172 eV

---------------
SCF CONVERGENCE
---------------

  Last Energy change         ...   -1.3343e-07  Tolerance :   1.0000e-06
  Last MAX-Density change    ...    5.7732e-15  Tolerance :   1.0000e-05
  Last RMS-Density change    ...    8.5710e-17  Tolerance :   1.0000e-06
  Last Orbital Gradient      ...    3.1349e-06  Tolerance :   5.0000e-05
  Last Orbital Rotation      ...    3.6372e-06  Tolerance :   5.0000e-05

             **** THE GBW FILE WAS UPDATED (manual_reactants_345_freq.gbw) ****
             **** DENSITY FILE WAS UPDATED (manual_reactants_345_freq.scfp) ****
             **** ENERGY FILE WAS UPDATED (manual_reactants_345_freq.en.tmp) ****
             **** THE GBW FILE WAS UPDATED (manual_reactants_345_freq.gbw) ****
             **** DENSITY FILE WAS UPDATED (manual_reactants_345_freq.scfp) ****
----------------
ORBITAL ENERGIES
----------------

  NO   OCC          E(Eh)            E(eV) 
   0   2.0000    -483.176971    -13147.9138 
   1   2.0000    -101.512324     -2762.2908 
   2   2.0000     -62.613025     -1703.7870 
   3   2.0000     -56.402196     -1534.7818 
   4   2.0000     -56.399935     -1534.7203 
   5   2.0000     -56.399863     -1534.7183 
   6   2.0000     -10.277506      -279.6652 
   7   2.0000     -10.246428      -278.8195 
   8   2.0000     -10.217150      -278.0228 
   9   2.0000     -10.216914      -278.0164 
  10   2.0000     -10.213444      -277.9220 
  11   2.0000      -9.359474      -254.6842 
  12   2.0000      -8.758258      -238.3243 
  13   2.0000      -7.095226      -193.0709 
  14   2.0000      -7.095198      -193.0701 
  15   2.0000      -7.095187      -193.0698 
  16   2.0000      -6.572434      -178.8450 
  17   2.0000      -6.560569      -178.5221 
  18   2.0000      -6.560305      -178.5150 
  19   2.0000      -2.657972       -72.3271 
  20   2.0000      -2.654773       -72.2401 
  21   2.0000      -2.654590       -72.2351 
  22   2.0000      -2.644941       -71.9725 
  23   2.0000      -2.644916       -71.9718 
  24   2.0000      -0.856381       -23.3033 
  25   2.0000      -0.790955       -21.5230 
  26   2.0000      -0.693463       -18.8701 
  27   2.0000      -0.692231       -18.8366 
  28   2.0000      -0.667728       -18.1698 
  29   2.0000      -0.662136       -18.0176 
  30   2.0000      -0.542864       -14.7721 
  31   2.0000      -0.472878       -12.8677 
  32   2.0000      -0.467857       -12.7310 
  33   2.0000      -0.450571       -12.2606 
  34   2.0000      -0.417603       -11.3636 
  35   2.0000      -0.404394       -11.0041 
  36   2.0000      -0.378151       -10.2900 
  37   2.0000      -0.366619        -9.9762 
  38   2.0000      -0.364930        -9.9303 
  39   2.0000      -0.347343        -9.4517 
  40   2.0000      -0.334162        -9.0930 
  41   2.0000      -0.329626        -8.9696 
  42   2.0000      -0.285435        -7.7671 
  43   2.0000      -0.284380        -7.7384 
  44   2.0000      -0.207760        -5.6534 
  45   2.0000      -0.207546        -5.6476 
  46   2.0000      -0.205133        -5.5820 
  47   0.0000       0.019481         0.5301 
  48   0.0000       0.070233         1.9111 
  49   0.0000       0.114665         3.1202 
  50   0.0000       0.117505         3.1975 
  51   0.0000       0.130769         3.5584 
  52   0.0000       0.136988         3.7276 
  53   0.0000       0.144282         3.9261 
  54   0.0000       0.152162         4.1405 
  55   0.0000       0.167623         4.5613 
  56   0.0000       0.197012         5.3610 
  57   0.0000       0.202478         5.5097 
  58   0.0000       0.205269         5.5857 
  59   0.0000       0.208864         5.6835 
  60   0.0000       0.232814         6.3352 
  61   0.0000       0.244495         6.6531 
  62   0.0000       0.246545         6.7088 
  63   0.0000       0.363461         9.8903 
  64   0.0000       0.380747        10.3607 
  65   0.0000       0.402100        10.9417 
  66   0.0000       0.428044        11.6477 
  67   0.0000       0.434442        11.8218 
  68   0.0000       0.443672        12.0729 
  69   0.0000       0.494537        13.4570 
  70   0.0000       0.495957        13.4957 
  71   0.0000       0.529075        14.3969 
  72   0.0000       0.554487        15.0884 
  73   0.0000       0.557826        15.1792 
  74   0.0000       0.570597        15.5267 
  75   0.0000       0.595165        16.1953 
  76   0.0000       0.599131        16.3032 
  77   0.0000       0.625618        17.0239 
  78   0.0000       0.636910        17.3312 
  79   0.0000       0.648691        17.6518 
  80   0.0000       0.651134        17.7182 
  81   0.0000       0.660527        17.9738 
  82   0.0000       0.664596        18.0846 
  83   0.0000       0.679507        18.4903 
  84   0.0000       0.691537        18.8177 
  85   0.0000       0.706965        19.2375 
  86   0.0000       0.718502        19.5514 
  87   0.0000       0.727642        19.8001 
  88   0.0000       0.732713        19.9381 
  89   0.0000       0.742081        20.1930 
  90   0.0000       0.749870        20.4050 
  91   0.0000       0.753398        20.5010 
  92   0.0000       0.757059        20.6006 
  93   0.0000       0.764382        20.7999 
  94   0.0000       0.772690        21.0260 
  95   0.0000       0.794616        21.6226 
  96   0.0000       0.797961        21.7136 
  97   0.0000       0.877620        23.8813 
  98   0.0000       0.929295        25.2874 
  99   0.0000       0.929409        25.2905 
 100   0.0000       0.932829        25.3836 
 101   0.0000       0.935863        25.4661 
 102   0.0000       0.938119        25.5275 
 103   0.0000       0.940476        25.5917 
 104   0.0000       0.998142        27.1608 
 105   0.0000       1.006031        27.3755 
 106   0.0000       1.013931        27.5905 
 107   0.0000       1.043438        28.3934 
 108   0.0000       1.106840        30.1187 
 109   0.0000       1.133575        30.8461 
 110   0.0000       1.147253        31.2183 
 111   0.0000       1.161071        31.5943 
 112   0.0000       1.186059        32.2743 
 113   0.0000       1.206808        32.8389 
 114   0.0000       1.277567        34.7644 
 115   0.0000       1.294647        35.2291 
 116   0.0000       1.380271        37.5591 
 117   0.0000       1.555251        42.3205 
 118   0.0000       1.564724        42.5783 
 119   0.0000       1.566451        42.6253 
 120   0.0000       1.572312        42.7848 
 121   0.0000       1.591011        43.2936 
 122   0.0000       1.614556        43.9343 
 123   0.0000       1.640480        44.6397 
 124   0.0000       1.706379        46.4329 
 125   0.0000       1.754228        47.7350 
 126   0.0000       1.760033        47.8929 
 127   0.0000       1.779520        48.4232 
 128   0.0000       1.793394        48.8007 
 129   0.0000       1.842685        50.1420 
 130   0.0000       1.851221        50.3743 
 131   0.0000       1.858379        50.5691 
 132   0.0000       1.863048        50.6961 
 133   0.0000       1.875570        51.0368 
 134   0.0000       1.878279        51.1106 
 135   0.0000       1.903921        51.8083 
 136   0.0000       1.910253        51.9806 
 137   0.0000       1.972965        53.6871 
 138   0.0000       1.975038        53.7435 
 139   0.0000       1.986112        54.0449 
 140   0.0000       1.998010        54.3686 
 141   0.0000       2.017969        54.9117 
 142   0.0000       2.085895        56.7601 
 143   0.0000       2.134592        58.0852 
 144   0.0000       2.206372        60.0384 
 145   0.0000       2.221793        60.4581 
 146   0.0000       2.252990        61.3070 
 147   0.0000       2.317040        63.0499 
 148   0.0000       2.345514        63.8247 
 149   0.0000       2.404517        65.4302 
 150   0.0000       2.430785        66.1450 
 151   0.0000       2.432163        66.1825 
 152   0.0000       2.453167        66.7541 
 153   0.0000       2.469694        67.2038 
 154   0.0000       2.619644        71.2841 
 155   0.0000       2.630454        71.5783 
 156   0.0000       2.650188        72.1153 
 157   0.0000       2.653611        72.2084 
 158   0.0000       2.673141        72.7399 
 159   0.0000       2.749828        74.8266 
 160   0.0000       2.878823        78.3368 
 161   0.0000       2.895631        78.7941 
 162   0.0000       2.899375        78.8960 
 163   0.0000       2.917101        79.3784 
 164   0.0000       2.928701        79.6940 
 165   0.0000       2.981832        81.1398 
 166   0.0000       3.007224        81.8307 
 167   0.0000       3.023658        82.2779 
 168   0.0000       3.114923        84.7614 
 169   0.0000       3.133214        85.2591 
 170   0.0000       3.495064        95.1055 
 171   0.0000       3.496420        95.1424 
 172   0.0000       3.597215        97.8852 
 173   0.0000       3.597933        97.9047 
 174   0.0000       3.858328       104.9904 

                    ********************************
                    * MULLIKEN POPULATION ANALYSIS *
                    ********************************

-----------------------
MULLIKEN ATOMIC CHARGES
-----------------------
   0 C :    0.016679
   1 C :   -0.384827
   2 C :   -0.008493
   3 C :   -0.007116
   4 C :   -0.022893
   5 Br:   -0.193976
   6 H :    0.026757
   7 H :    0.025921
   8 H :    0.027818
   9 H :    0.040958
  10 H :    0.048174
  11 H :    0.043659
  12 H :    0.042205
  13 H :    0.043866
  14 H :    0.045778
  15 H :    0.100128
  16 H :    0.100764
  17 Cl:   -0.945404
Sum of atomic charges:   -1.0000000

--------------------------------
MULLIKEN REDUCED ORBITAL CHARGES
--------------------------------
  0 C s       :     3.020590  s :     3.020590
      pz      :     0.937180  p :     2.935671
      px      :     0.981650
      py      :     1.016841
      dz2     :     0.007426  d :     0.027060
      dxz     :     0.007814
      dyz     :     0.001577
      dx2y2   :     0.001853
      dxy     :     0.008390
  1 C s       :     3.264829  s :     3.264829
      pz      :     1.048567  p :     3.066355
      px      :     1.021011
      py      :     0.996777
      dz2     :     0.012163  d :     0.053643
      dxz     :     0.012244
      dyz     :     0.007144
      dx2y2   :     0.008584
      dxy     :     0.013507
  2 C s       :     3.028585  s :     3.028585
      pz      :     0.958042  p :     2.953098
      px      :     0.981829
      py      :     1.013227
      dz2     :     0.007692  d :     0.026810
      dxz     :     0.007257
      dyz     :     0.001350
      dx2y2   :     0.001944
      dxy     :     0.008567
  3 C s       :     3.027304  s :     3.027304
      pz      :     1.012495  p :     2.953031
      px      :     0.987891
      py      :     0.952644
      dz2     :     0.005171  d :     0.026781
      dxz     :     0.008581
      dyz     :     0.001574
      dx2y2   :     0.003901
      dxy     :     0.007554
  4 C s       :     3.129754  s :     3.129754
      pz      :     0.885422  p :     2.857903
      px      :     0.945726
      py      :     1.026755
      dz2     :     0.006634  d :     0.035236
      dxz     :     0.010548
      dyz     :     0.003584
      dx2y2   :     0.005618
      dxy     :     0.008851
  5 Brs       :     7.969689  s :     7.969689
      pz      :     5.518573  p :    17.181647
      px      :     5.716606
      py      :     5.946467
      dz2     :     2.011438  d :    10.042640
      dxz     :     2.017287
      dyz     :     2.005784
      dx2y2   :     2.004270
      dxy     :     2.003861
  6 H s       :     0.949442  s :     0.949442
      pz      :     0.011047  p :     0.023801
      px      :     0.007448
      py      :     0.005306
  7 H s       :     0.950060  s :     0.950060
      pz      :     0.004389  p :     0.024019
      px      :     0.008612
      py      :     0.011019
  8 H s       :     0.948380  s :     0.948380
      pz      :     0.004326  p :     0.023802
      px      :     0.008382
      py      :     0.011093
  9 H s       :     0.934784  s :     0.934784
      pz      :     0.011275  p :     0.024257
      px      :     0.007765
      py      :     0.005218
 10 H s       :     0.928008  s :     0.928008
      pz      :     0.004361  p :     0.023818
      px      :     0.008492
      py      :     0.010965
 11 H s       :     0.932729  s :     0.932729
      pz      :     0.004304  p :     0.023612
      px      :     0.007735
      py      :     0.011574
 12 H s       :     0.933626  s :     0.933626
      pz      :     0.011549  p :     0.024169
      px      :     0.008181
      py      :     0.004439
 13 H s       :     0.932537  s :     0.932537
      pz      :     0.011199  p :     0.023597
      px      :     0.008175
      py      :     0.004222
 14 H s       :     0.930401  s :     0.930401
      pz      :     0.005185  p :     0.023820
      px      :     0.007885
      py      :     0.010751
 15 H s       :     0.877101  s :     0.877101
      pz      :     0.010481  p :     0.022771
      px      :     0.008297
      py      :     0.003994
 16 H s       :     0.876513  s :     0.876513
      pz      :     0.003633  p :     0.022723
      px      :     0.007559
      py      :     0.011531
 17 Cls       :     5.997810  s :     5.997810
      pz      :     3.971095  p :    11.947522
      px      :     3.983566
      py      :     3.992861
      dz2     :     0.000020  d :     0.000073
      dxz     :     0.000031
      dyz     :     0.000010
      dx2y2   :     0.000007
      dxy     :     0.000004


                     *******************************
                     * LOEWDIN POPULATION ANALYSIS *
                     *******************************

----------------------
LOEWDIN ATOMIC CHARGES
----------------------
   0 C :   -0.055959
   1 C :   -0.092169
   2 C :   -0.061936
   3 C :   -0.060916
   4 C :   -0.064965
   5 Br:   -0.024583
   6 H :    0.022973
   7 H :    0.022268
   8 H :    0.023113
   9 H :    0.020851
  10 H :    0.031666
  11 H :    0.029628
  12 H :    0.021810
  13 H :    0.029517
  14 H :    0.031751
  15 H :    0.038727
  16 H :    0.038869
  17 Cl:   -0.950644

-------------------------------
LOEWDIN REDUCED ORBITAL CHARGES
-------------------------------
  0 C s       :     2.847902  s :     2.847902
      pz      :     1.020068  p :     3.136501
      px      :     1.046522
      py      :     1.069910
      dz2     :     0.019675  d :     0.071556
      dxz     :     0.021949
      dyz     :     0.003451
      dx2y2   :     0.004846
      dxy     :     0.021636
  1 C s       :     2.851506  s :     2.851506
      pz      :     1.051054  p :     3.118110
      px      :     1.039008
      py      :     1.028049
      dz2     :     0.028339  d :     0.122553
      dxz     :     0.029810
      dyz     :     0.012814
      dx2y2   :     0.017835
      dxy     :     0.033753
  2 C s       :     2.846527  s :     2.846527
      pz      :     1.031327  p :     3.144496
      px      :     1.047548
      py      :     1.065622
      dz2     :     0.020092  d :     0.070913
      dxz     :     0.020642
      dyz     :     0.002963
      dx2y2   :     0.005213
      dxy     :     0.022003
  3 C s       :     2.846621  s :     2.846621
      pz      :     1.066034  p :     3.143481
      px      :     1.048794
      py      :     1.028652
      dz2     :     0.014146  d :     0.070815
      dxz     :     0.022203
      dyz     :     0.003569
      dx2y2   :     0.009754
      dxy     :     0.021143
  4 C s       :     2.918009  s :     2.918009
      pz      :     0.958881  p :     3.062766
      px      :     1.023046
      py      :     1.080839
      dz2     :     0.016294  d :     0.084190
      dxz     :     0.024491
      dyz     :     0.007397
      dx2y2   :     0.012308
      dxy     :     0.023700
  5 Brs       :     7.824535  s :     7.824535
      pz      :     5.514767  p :    17.145803
      px      :     5.705438
      py      :     5.925597
      dz2     :     2.013601  d :    10.054245
      dxz     :     2.023080
      dyz     :     2.007579
      dx2y2   :     2.005140
      dxy     :     2.004845
  6 H s       :     0.910438  s :     0.910438
      pz      :     0.033090  p :     0.066589
      px      :     0.020433
      py      :     0.013066
  7 H s       :     0.910199  s :     0.910199
      pz      :     0.012535  p :     0.067533
      px      :     0.024029
      py      :     0.030969
  8 H s       :     0.910329  s :     0.910329
      pz      :     0.012576  p :     0.066559
      px      :     0.023342
      py      :     0.030641
  9 H s       :     0.910902  s :     0.910902
      pz      :     0.033650  p :     0.068247
      px      :     0.021692
      py      :     0.012905
 10 H s       :     0.901797  s :     0.901797
      pz      :     0.012934  p :     0.066537
      px      :     0.023598
      py      :     0.030006
 11 H s       :     0.904118  s :     0.904118
      pz      :     0.012645  p :     0.066253
      px      :     0.021868
      py      :     0.031741
 12 H s       :     0.910253  s :     0.910253
      pz      :     0.031848  p :     0.067937
      px      :     0.022660
      py      :     0.013429
 13 H s       :     0.904195  s :     0.904195
      pz      :     0.030803  p :     0.066288
      px      :     0.022698
      py      :     0.012787
 14 H s       :     0.901874  s :     0.901874
      pz      :     0.012768  p :     0.066375
      px      :     0.021840
      py      :     0.031767
 15 H s       :     0.889963  s :     0.889963
      pz      :     0.033634  p :     0.071310
      px      :     0.024489
      py      :     0.013187
 16 H s       :     0.889827  s :     0.889827
      pz      :     0.011974  p :     0.071304
      px      :     0.023528
      py      :     0.035803
 17 Cls       :     5.996849  s :     5.996849
      pz      :     3.973880  p :    11.953727
      px      :     3.985172
      py      :     3.994676
      dz2     :     0.000019  d :     0.000068
      dxz     :     0.000028
      dyz     :     0.000010
      dx2y2   :     0.000007
      dxy     :     0.000004


                      *****************************
                      * MAYER POPULATION ANALYSIS *
                      *****************************

  NA   - Mulliken gross atomic population
  ZA   - Total nuclear charge
  QA   - Mulliken gross atomic charge
  VA   - Mayer's total valence
  BVA  - Mayer's bonded valence
  FA   - Mayer's free valence

  ATOM       NA         ZA         QA         VA         BVA        FA
  0 C      5.9833     6.0000     0.0167     3.8685     3.8685    -0.0000
  1 C      6.3848     6.0000    -0.3848     4.1031     4.1031     0.0000
  2 C      6.0085     6.0000    -0.0085     3.8619     3.8619     0.0000
  3 C      6.0071     6.0000    -0.0071     3.8648     3.8648     0.0000
  4 C      6.0229     6.0000    -0.0229     3.8128     3.8128    -0.0000
  5 Br    35.1940    35.0000    -0.1940     1.0515     1.0515    -0.0000
  6 H      0.9732     1.0000     0.0268     1.0175     1.0175     0.0000
  7 H      0.9741     1.0000     0.0259     1.0366     1.0366     0.0000
  8 H      0.9722     1.0000     0.0278     1.0147     1.0147    -0.0000
  9 H      0.9590     1.0000     0.0410     1.0061     1.0061     0.0000
 10 H      0.9518     1.0000     0.0482     0.9933     0.9933     0.0000
 11 H      0.9563     1.0000     0.0437     0.9920     0.9920     0.0000
 12 H      0.9578     1.0000     0.0422     1.0041     1.0041    -0.0000
 13 H      0.9561     1.0000     0.0439     0.9917     0.9917    -0.0000
 14 H      0.9542     1.0000     0.0458     0.9943     0.9943    -0.0000
 15 H      0.8999     1.0000     0.1001     0.9771     0.9771    -0.0000
 16 H      0.8992     1.0000     0.1008     0.9773     0.9773    -0.0000
 17 Cl    17.9454    17.0000    -0.9454     0.1084     0.1084    -0.0000

  Mayer bond orders larger than 0.100000
B(  0-C ,  1-C ) :   1.0015 B(  0-C ,  6-H ) :   0.9663 B(  0-C ,  7-H ) :   0.9602 
B(  0-C ,  8-H ) :   0.9660 B(  1-C ,  2-C ) :   1.0169 B(  1-C ,  3-C ) :   1.0180 
B(  1-C ,  4-C ) :   0.9904 B(  2-C ,  9-H ) :   0.9619 B(  2-C , 10-H ) :   0.9690 
B(  2-C , 11-H ) :   0.9679 B(  3-C , 12-H ) :   0.9629 B(  3-C , 13-H ) :   0.9669 
B(  3-C , 14-H ) :   0.9694 B(  4-C ,  5-Br) :   0.9767 B(  4-C , 15-H ) :   0.9478 
B(  4-C , 16-H ) :   0.9472 


------------------
HIRSHFELD ANALYSIS
------------------

Total integrated alpha density =     47.005801022
Total integrated beta density  =     47.005801022

  ATOM     CHARGE      SPIN    
   0 C   -0.081127    0.000000
   1 C    0.026548    0.000000
   2 C   -0.082679    0.000000
   3 C   -0.081779    0.000000
   4 C    0.009958    0.000000
   5 Br  -0.140867    0.000000
   6 H    0.019612    0.000000
   7 H    0.018102    0.000000
   8 H    0.019867    0.000000
   9 H    0.014562    0.000000
  10 H    0.027452    0.000000
  11 H    0.025636    0.000000
  12 H    0.015868    0.000000
  13 H    0.025764    0.000000
  14 H    0.027107    0.000000
  15 H    0.043696    0.000000
  16 H    0.043140    0.000000
  17 Cl  -0.942464    0.000000

  TOTAL  -1.011602    0.000000

-------
TIMINGS
-------

Total SCF time: 0 days 0 hours 0 min 15 sec 

Total time                  ....      15.651 sec
Sum of individual times     ....      15.406 sec  ( 98.4%)

Fock matrix formation       ....      14.250 sec  ( 91.0%)
  Split-RI-J                ....       1.847 sec  ( 13.0% of F)
  Chain of spheres X        ....       8.117 sec  ( 57.0% of F)
  COS-X 1 center corr.      ....       0.000 sec  (  0.0% of F)
  XC integration            ....       0.913 sec  (  6.4% of F)
    Basis function eval.    ....       0.348 sec  ( 38.2% of XC)
    Density eval.           ....       0.186 sec  ( 20.3% of XC)
    XC-Functional eval.     ....       0.068 sec  (  7.4% of XC)
    XC-Potential eval.      ....       0.262 sec  ( 28.7% of XC)
Diagonalization             ....       0.026 sec  (  0.2%)
Density matrix formation    ....       0.005 sec  (  0.0%)
Population analysis         ....       0.075 sec  (  0.5%)
Initial guess               ....       0.177 sec  (  1.1%)
Orbital Transformation      ....       0.000 sec  (  0.0%)
Orbital Orthonormalization  ....       0.000 sec  (  0.0%)
DIIS solution               ....       0.007 sec  (  0.0%)
SOSCF solution              ....       0.013 sec  (  0.1%)
Grid generation             ....       0.853 sec  (  5.4%)


-------------------------------------------------------------------------------
                          DFT DISPERSION CORRECTION                            
                                                                               
                              DFTD3 V3.1  Rev 1                                
                          USING Becke-Johnson damping                          
-------------------------------------------------------------------------------
The PBE0 functional is recognized
Active option DFTDOPT                   ...         4   

molecular C6(AA) [au] = 3994.943682 


            DFT-D V3
 parameters
 s6 scaling factor         :     1.0000 
 a1 scaling factor         :     0.4145 
 s8 scaling factor         :     1.2177 
 a2 scaling factor         :     4.8593 
 ad hoc parameters k1-k3   :    16.0000     1.3333    -4.0000 

 Edisp/kcal,au: -9.707957776512  -0.015470613819 
 E6   /kcal   :  -6.062204767 
 E8   /kcal   :  -3.645753009 
 % E8         :  37.554273443 

-------------------------   ----------------
Dispersion correction           -0.015470614
-------------------------   ----------------


-------------------------   --------------------
FINAL SINGLE POINT ENERGY     -3230.402741410282
-------------------------   --------------------


                            ***************************************
                            *     ORCA property calculations      *
                            ***************************************

                                    ---------------------
                                    Active property flags
                                    ---------------------
   (+) Dipole Moment


------------------------------------------------------------------------------
                       ORCA ELECTRIC PROPERTIES CALCULATION
------------------------------------------------------------------------------

Dipole Moment Calculation                       ... on
Quadrupole Moment Calculation                   ... off
Polarizability Calculation                      ... off
GBWName                                         ... manual_reactants_345_freq.gbw
Electron density file                           ... manual_reactants_345_freq.scfp
The origin for moment calculation is the CENTER OF MASS  = (-0.103220, -0.057161  0.019080)

-------------
DIPOLE MOMENT
-------------
                                X             Y             Z
Electronic contribution:    -21.45586      16.69872     -15.54043
Nuclear contribution   :     16.22398     -14.91859       9.25411
                        -----------------------------------------
Total Dipole Moment    :     -5.23188       1.78013      -6.28632
                        -----------------------------------------
Magnitude (a.u.)       :      8.37014
Magnitude (Debye)      :     21.27521



--------------------
Rotational spectrum 
--------------------
 
Rotational constants in cm-1:     0.107018     0.010698     0.010408 
Rotational constants in MHz :  3208.325919   320.707515   312.018805 

 Dipole components along the rotational axes: 
x,y,z [a.u.] :    -8.339458    -0.715992     0.009877 
x,y,z [Debye]:   -21.197217    -1.819908     0.025106 

 
[1631721896.471498] [comp0807:16538:0]            sys.c:618  UCX  ERROR shmget(size=2097152 flags=0xfb0) for mm_recv_desc failed: Operation not permitted, please check shared memory limits by 'ipcs -l'
[1631721896.480177] [comp0807:16539:0]            sys.c:618  UCX  ERROR shmget(size=2097152 flags=0xfb0) for mm_recv_desc failed: Operation not permitted, please check shared memory limits by 'ipcs -l'
[1631721896.482924] [comp0807:16537:0]            sys.c:618  UCX  ERROR shmget(size=2097152 flags=0xfb0) for mm_recv_desc failed: Operation not permitted, please check shared memory limits by 'ipcs -l'
[1631721896.490776] [comp0807:16540:0]            sys.c:618  UCX  ERROR shmget(size=2097152 flags=0xfb0) for mm_recv_desc failed: Operation not permitted, please check shared memory limits by 'ipcs -l'
[1631721896.498835] [comp0807:16537:0]            sys.c:618  UCX  ERROR shmget(size=2097152 flags=0xb80) for ucp_am_bufs failed: Operation not permitted, please check shared memory limits by 'ipcs -l'
[1631721896.500319] [comp0807:16539:0]            sys.c:618  UCX  ERROR shmget(size=2097152 flags=0xb80) for ucp_am_bufs failed: Operation not permitted, please check shared memory limits by 'ipcs -l'
[1631721896.499794] [comp0807:16538:0]            sys.c:618  UCX  ERROR shmget(size=2097152 flags=0xb80) for ucp_am_bufs failed: Operation not permitted, please check shared memory limits by 'ipcs -l'


           ************************************************************
           *        Program running with 4 parallel MPI-processes     *
           *              working on a common directory               *
           ************************************************************

-------------------------------------------------------------------------------
                               ORCA SCF HESSIAN
-------------------------------------------------------------------------------

Hessian of the Kohn-Sham DFT energy:
Kohn-Sham wavefunction type                      ... RKS
Hartree-Fock exchange scaling                    ...    0.250
Number of operators                              ...    1
Number of atoms                                  ...   18
Basis set dimensions                             ...  175
Integral neglect threshold                       ... 1.0e-10
Integral primitive cutoff                        ... 1.0e-11

Setting up DFT Hessian calculations              ... 
Electron density on the grid                     ... found on disk
Electron density on the final grid               ... found on disk
Building xc-kernel on the grid                   ... done   (      0.0 sec)
Building xc-kernel on the final grid             ... done   (      0.0 sec)
[1631721896.593248] [comp0807:16540:0]            sys.c:618  UCX  ERROR shmget(size=2097152 flags=0xb80) for ucp_am_bufs failed: Operation not permitted, please check shared memory limits by 'ipcs -l'
                                                     done   (      0.1 sec)

Nuclear repulsion Hessian                        ... done   (      0.0 sec)

----------------------------------------------
Forming right-hand sides of CP-SCF equations     ...
----------------------------------------------
One electron integral derivatives                ... done   (     12.0 sec)
Transforming the overlap derivative matrices     ... done   (      0.0 sec)
[1631721910.936262] [comp0807:16539:0]            sys.c:618  UCX  ERROR shmget(size=6291456 flags=0xfb0) for mm_recv_desc failed: Operation not permitted, please check shared memory limits by 'ipcs -l'
Adding tr(S(x)F(y) C-PCM term to the hessian     ... done   (      1.9 sec)
Making the Q(x) pseudodensities                  ... done   (      0.0 sec)
Adding the E*S(x)*S(y) terms to the Hessian      ... done   (      0.0 sec)
Calculating energy weighted overlap derivatives  ... done   (      0.0 sec)
Two electron integral derivatives (RI)           ... done   (      4.8 sec)
Exchange-correlation integral derivatives        ... done   (     12.5 sec)
tr(F(y)Q(x)) contribution to the Hessian         ... done   (      0.0 sec)
Response fock operator R(S(x)) (RIJCOSX)         ... done   (      7.9 sec)
XC Response fock operator R(S(x))                ... done   (      4.5 sec)
tr(F(y)S(x)) contribution to the Hessian         ... done   (      0.0 sec)
Transforming and finalizing RHSs                 ... done   (      0.0 sec)

----------------------------------------------
Solving the CP-SCF equations (RIJCOSX)           ...
----------------------------------------------
     CP-SCF ITERATION   0: 
     CP-SCF ITERATION   1:      0.000558824023
     CP-SCF ITERATION   2:      0.000049495498
     CP-SCF ITERATION   3:      0.000004491387
     CP-SCF ITERATION   4:      0.000000998334

                                                 ... done   (     32.1 sec)
Forming perturbed density Hessian contributions  ... done   (      0.0 sec)
Calculating [Q*(d^2 A/dXdY)*Q  ] C-PCM term      ... done   (      0.0 sec)
Calculating [d^2(V_N)/(dXdY)*Q ] C-PCM term      ... done   (      0.0 sec)
Calculating [d^2(V_el)/(dXdY)*Q] C-PCM term      ... done   (      0.8 sec)
Calculating C-PCM term that depends on dQ/dX     ... done   (      0.0 sec)
2nd integral derivative contribs (RI)            ... done   (     22.8 sec)
Exchange-correlation Hessian                     ... done   (     11.8 sec)
Dispersion correction in the Hessian             ... done   (      0.9 sec)
Dipol derivatives                                ... done   (      0.4 sec)

Total SCF Hessian time: 0 days 0 hours 1 min 56 sec 

Writing the Hessian file to the disk             ... done


Maximum memory used throughout the entire calculation: 168.8 MB

-----------------------
VIBRATIONAL FREQUENCIES
-----------------------

Scaling factor for frequencies =  1.000000000  (already applied!)

   0:         0.00 cm**-1
   1:         0.00 cm**-1
   2:         0.00 cm**-1
   3:         0.00 cm**-1
   4:         0.00 cm**-1
   5:         0.00 cm**-1
   6:       -50.78 cm**-1 ***imaginary mode***
   7:       -48.55 cm**-1 ***imaginary mode***
   8:        78.76 cm**-1
   9:       107.08 cm**-1
  10:       178.71 cm**-1
  11:       221.67 cm**-1
  12:       263.52 cm**-1
  13:       266.66 cm**-1
  14:       286.36 cm**-1
  15:       329.06 cm**-1
  16:       385.90 cm**-1
  17:       404.64 cm**-1
  18:       451.32 cm**-1
  19:       658.40 cm**-1
  20:       766.33 cm**-1
  21:       857.12 cm**-1
  22:       918.62 cm**-1
  23:       935.28 cm**-1
  24:       939.23 cm**-1
  25:       948.23 cm**-1
  26:      1024.20 cm**-1
  27:      1026.90 cm**-1
  28:      1125.05 cm**-1
  29:      1203.15 cm**-1
  30:      1271.71 cm**-1
  31:      1280.84 cm**-1
  32:      1292.47 cm**-1
  33:      1350.80 cm**-1
  34:      1373.02 cm**-1
  35:      1384.45 cm**-1
  36:      1424.56 cm**-1
  37:      1432.38 cm**-1
  38:      1433.98 cm**-1
  39:      1439.55 cm**-1
  40:      1453.23 cm**-1
  41:      1458.32 cm**-1
  42:      1469.77 cm**-1
  43:      3041.34 cm**-1
  44:      3045.29 cm**-1
  45:      3058.00 cm**-1
  46:      3108.82 cm**-1
  47:      3137.86 cm**-1
  48:      3140.14 cm**-1
  49:      3144.38 cm**-1
  50:      3148.23 cm**-1
  51:      3148.96 cm**-1
  52:      3155.94 cm**-1
  53:      3188.77 cm**-1


------------
NORMAL MODES
------------

These modes are the Cartesian displacements weighted by the diagonal matrix
M(i,i)=1/sqrt(m[i]) where m[i] is the mass of the displaced atom
Thus, these vectors are normalized but *not* orthogonal

                  0          1          2          3          4          5    
      0       0.000000   0.000000   0.000000   0.000000   0.000000   0.000000
      1       0.000000   0.000000   0.000000   0.000000   0.000000   0.000000
      2       0.000000   0.000000   0.000000   0.000000   0.000000   0.000000
      3       0.000000   0.000000   0.000000   0.000000   0.000000   0.000000
      4       0.000000   0.000000   0.000000   0.000000   0.000000   0.000000
      5       0.000000   0.000000   0.000000   0.000000   0.000000   0.000000
      6       0.000000   0.000000   0.000000   0.000000   0.000000   0.000000
      7       0.000000   0.000000   0.000000   0.000000   0.000000   0.000000
      8       0.000000   0.000000   0.000000   0.000000   0.000000   0.000000
      9       0.000000   0.000000   0.000000   0.000000   0.000000   0.000000
     10       0.000000   0.000000   0.000000   0.000000   0.000000   0.000000
     11       0.000000   0.000000   0.000000   0.000000   0.000000   0.000000
     12       0.000000   0.000000   0.000000   0.000000   0.000000   0.000000
     13       0.000000   0.000000   0.000000   0.000000   0.000000   0.000000
     14       0.000000   0.000000   0.000000   0.000000   0.000000   0.000000
     15       0.000000   0.000000   0.000000   0.000000   0.000000   0.000000
     16       0.000000   0.000000   0.000000   0.000000   0.000000   0.000000
     17       0.000000   0.000000   0.000000   0.000000   0.000000   0.000000
     18       0.000000   0.000000   0.000000   0.000000   0.000000   0.000000
     19       0.000000   0.000000   0.000000   0.000000   0.000000   0.000000
     20       0.000000   0.000000   0.000000   0.000000   0.000000   0.000000
     21       0.000000   0.000000   0.000000   0.000000   0.000000   0.000000
     22       0.000000   0.000000   0.000000   0.000000   0.000000   0.000000
     23       0.000000   0.000000   0.000000   0.000000   0.000000   0.000000
     24       0.000000   0.000000   0.000000   0.000000   0.000000   0.000000
     25       0.000000   0.000000   0.000000   0.000000   0.000000   0.000000
     26       0.000000   0.000000   0.000000   0.000000   0.000000   0.000000
     27       0.000000   0.000000   0.000000   0.000000   0.000000   0.000000
     28       0.000000   0.000000   0.000000   0.000000   0.000000   0.000000
     29       0.000000   0.000000   0.000000   0.000000   0.000000   0.000000
     30       0.000000   0.000000   0.000000   0.000000   0.000000   0.000000
     31       0.000000   0.000000   0.000000   0.000000   0.000000   0.000000
     32       0.000000   0.000000   0.000000   0.000000   0.000000   0.000000
     33       0.000000   0.000000   0.000000   0.000000   0.000000   0.000000
     34       0.000000   0.000000   0.000000   0.000000   0.000000   0.000000
     35       0.000000   0.000000   0.000000   0.000000   0.000000   0.000000
     36       0.000000   0.000000   0.000000   0.000000   0.000000   0.000000
     37       0.000000   0.000000   0.000000   0.000000   0.000000   0.000000
     38       0.000000   0.000000   0.000000   0.000000   0.000000   0.000000
     39       0.000000   0.000000   0.000000   0.000000   0.000000   0.000000
     40       0.000000   0.000000   0.000000   0.000000   0.000000   0.000000
     41       0.000000   0.000000   0.000000   0.000000   0.000000   0.000000
     42       0.000000   0.000000   0.000000   0.000000   0.000000   0.000000
     43       0.000000   0.000000   0.000000   0.000000   0.000000   0.000000
     44       0.000000   0.000000   0.000000   0.000000   0.000000   0.000000
     45       0.000000   0.000000   0.000000   0.000000   0.000000   0.000000
     46       0.000000   0.000000   0.000000   0.000000   0.000000   0.000000
     47       0.000000   0.000000   0.000000   0.000000   0.000000   0.000000
     48       0.000000   0.000000   0.000000   0.000000   0.000000   0.000000
     49       0.000000   0.000000   0.000000   0.000000   0.000000   0.000000
     50       0.000000   0.000000   0.000000   0.000000   0.000000   0.000000
     51       0.000000   0.000000   0.000000   0.000000   0.000000   0.000000
     52       0.000000   0.000000   0.000000   0.000000   0.000000   0.000000
     53       0.000000   0.000000   0.000000   0.000000   0.000000   0.000000
                  6          7          8          9         10         11    
      0       0.196148  -0.151603   0.055330   0.055886  -0.030557   0.015543
      1       0.215070   0.200035   0.057070   0.048999   0.082038   0.005921
      2      -0.102709   0.195732   0.142860  -0.038913   0.057183  -0.012072
      3       0.079932  -0.045614   0.083571  -0.050433   0.068459  -0.010415
      4       0.088933   0.100156   0.007337  -0.042205  -0.108481  -0.002183
      5      -0.027477   0.123749   0.138513   0.030324  -0.020435   0.005007
      6      -0.027831   0.046688   0.106192  -0.148789   0.158285  -0.036764
      7      -0.008271   0.086595  -0.006984   0.032715  -0.203088   0.002871
      8      -0.111702   0.191657   0.156094  -0.038989   0.044516  -0.012940
      9       0.086655   0.012166   0.106394   0.061364   0.171601  -0.001449
     10       0.077003   0.061035  -0.008032  -0.122762  -0.180639  -0.010079
     11       0.156814   0.106771   0.163672   0.103251   0.036263   0.026682
     12       0.076117  -0.104163   0.075358  -0.164293   0.035841  -0.014726
     13       0.088716   0.068817  -0.003366  -0.123366  -0.112489  -0.005576
     14      -0.059267   0.007550   0.115315   0.095797  -0.100740   0.011121
     15      -0.041766  -0.004735   0.101071   0.041525  -0.072517   0.008168
     16      -0.037259  -0.036179  -0.052362   0.034822   0.090704   0.001256
     17       0.003984  -0.085346   0.102321  -0.025954  -0.007249  -0.003013
     18       0.287013  -0.238495   0.046312   0.139449  -0.112119   0.044883
     19       0.285462   0.206805   0.063388   0.087823   0.111714  -0.434018
     20      -0.038299   0.137843   0.135124   0.019856   0.003076  -0.012461
     21       0.210913  -0.096525   0.081850   0.075437   0.054261   0.339537
     22       0.227446   0.246345   0.082380   0.063646   0.151654   0.240594
     23      -0.076312   0.309278   0.194898  -0.039976   0.211626  -0.231383
     24       0.184244  -0.211884   0.032830   0.039658  -0.124473  -0.307057
     25       0.239814   0.244026   0.072459   0.072171   0.154546   0.224852
     26      -0.253602   0.208290   0.137786  -0.152896   0.025809   0.187699
     27      -0.107447   0.117317   0.130118  -0.209068   0.217648  -0.069275
     28      -0.101186   0.024323  -0.040643  -0.156979  -0.244148   0.252669
     29      -0.059946   0.147499   0.141024   0.003130   0.004389   0.005027
     30      -0.015534   0.082368   0.122475   0.016580   0.129785  -0.205661
[...]
     12       0.013827  -0.000443   0.000240  -0.000383   0.004478  -0.000591
     13      -0.021184  -0.000532   0.000565  -0.000661  -0.047994  -0.000067
     14      -0.002865  -0.000316   0.001383  -0.001396  -0.048220   0.000346
     15      -0.000045   0.000011   0.000016   0.000016   0.000011   0.000004
     16       0.000084   0.000017  -0.000027  -0.000009   0.000067   0.000019
     17      -0.000004  -0.000003  -0.000024   0.000017   0.000077  -0.000005
     18      -0.106097  -0.013578   0.051695   0.344197  -0.004939   0.024900
     19      -0.266235  -0.001001   0.003221   0.022297  -0.000648   0.002267
     20      -0.075023   0.018936  -0.068709  -0.482418   0.009097  -0.033262
     21       0.063918   0.011823  -0.042951  -0.301643   0.010413   0.021564
     22       0.057675  -0.016533   0.059990   0.415266  -0.012953  -0.030941
     23       0.164246  -0.000200   0.000840  -0.000950   0.001439   0.000271
     24       0.150821   0.013095  -0.050044  -0.350499   0.006896   0.003730
     25      -0.078107   0.019256  -0.070709  -0.485516   0.008148   0.008345
     26      -0.239043   0.000311  -0.003543  -0.036061   0.001733   0.001599
     27      -0.115989  -0.134750  -0.262097   0.030486  -0.007170  -0.001396
     28      -0.381132  -0.003478  -0.006550   0.000767   0.000084   0.000214
     29       0.065270  -0.202941  -0.396883   0.049433  -0.010721  -0.000870
     30       0.076902   0.153208   0.300005  -0.037881   0.004434   0.022312
     31       0.074836  -0.201419  -0.393157   0.048952  -0.004590  -0.030096
     32      -0.231322   0.000778   0.000275   0.000768  -0.000625   0.000668
     33       0.174149   0.157237   0.306825  -0.038292   0.007275  -0.018202
     34      -0.103865   0.239311   0.463354  -0.056932   0.009508  -0.025841
     35       0.327928   0.005957   0.008464  -0.000091  -0.000919  -0.000429
     36       0.330785   0.277002  -0.138793   0.031329  -0.009444   0.147912
     37      -0.044426  -0.002158   0.000600   0.001540   0.000144  -0.004408
     38      -0.249297   0.397559  -0.198652   0.043491  -0.013182   0.187034
     39       0.315349   0.319465  -0.159188   0.035699  -0.007154  -0.445171
     40      -0.023124   0.026564  -0.014777   0.003996  -0.001987  -0.049342
     41       0.245641  -0.442833   0.219088  -0.048384   0.009132   0.612331
     42      -0.219158  -0.302404   0.151015  -0.032706   0.003604  -0.347162
     43      -0.144422   0.406385  -0.204027   0.045484  -0.006514   0.482286
     44      -0.032432   0.011781  -0.005892   0.001355   0.000276   0.002933
     45       0.012863  -0.002348   0.009846  -0.010721  -0.447103   0.002272
     46       0.038675  -0.000438   0.002748  -0.002126  -0.036113   0.002088
     47      -0.001617   0.003063  -0.012649   0.013750   0.535524  -0.002945
     48      -0.032065   0.005709  -0.009868   0.011216   0.405577   0.001472
     49       0.007514   0.006667  -0.011084   0.013625   0.583634   0.002452
     50       0.025626   0.000209  -0.000301   0.000817   0.030284   0.000843
     51      -0.000038  -0.000010   0.000021   0.000078   0.000003   0.000004
     52       0.000158  -0.000002  -0.000004  -0.000032   0.000004   0.000000
     53       0.000067  -0.000008   0.000028   0.000088   0.000002  -0.000005
                 48         49         50         51         52         53    
      0      -0.000434   0.008585   0.057204   0.033609   0.040591   0.001730
      1       0.005404   0.004756   0.042689   0.021567  -0.079346   0.001444
      2       0.000420  -0.005286  -0.037584  -0.021387  -0.024830  -0.001138
      3      -0.000437  -0.000438   0.001442  -0.000579   0.000431   0.001102
      4      -0.001454   0.000577   0.000251   0.000797  -0.001048   0.000872
      5      -0.000454  -0.000884   0.000065  -0.001223  -0.000494  -0.000705
      6      -0.020231   0.016437   0.031823  -0.060600   0.000226  -0.000132
      7      -0.088034  -0.002989  -0.012487   0.027300  -0.004852   0.000196
      8      -0.022624   0.012951   0.024548  -0.045539   0.000093   0.000645
      9       0.000264  -0.053526   0.013628  -0.007400   0.003263  -0.000169
     10       0.000349   0.035971  -0.009528   0.004865  -0.001935  -0.000558
     11      -0.005542  -0.063129   0.011246  -0.008766  -0.002234  -0.000366
     12       0.000212  -0.000519  -0.002093  -0.000762   0.000079   0.070907
     13       0.000555  -0.000864  -0.001113  -0.001090   0.000000   0.050565
     14      -0.000110  -0.000016   0.001500   0.000069  -0.000335  -0.042870
     15      -0.000028   0.000016   0.000011  -0.000032  -0.000017  -0.000071
     16       0.000014   0.000034  -0.000023   0.000022   0.000016  -0.000052
     17       0.000009  -0.000002  -0.000014   0.000031  -0.000010   0.000042
     18       0.000999  -0.050465  -0.345748  -0.198820  -0.201723  -0.010269
     19       0.002165  -0.002106  -0.015254  -0.009544  -0.027022  -0.000775
     20      -0.001629   0.074277   0.501163   0.288462   0.294538   0.017540
     21       0.026198  -0.003031   0.016100  -0.004782  -0.507225   0.000424
     22      -0.035252   0.009170   0.000949   0.020081   0.682063  -0.002010
     23      -0.000289  -0.000543  -0.008186  -0.002944  -0.019276   0.000473
     24      -0.020585  -0.046201  -0.353879  -0.192167   0.226816  -0.013324
     25      -0.027940  -0.065041  -0.492823  -0.268405   0.288237  -0.016640
     26      -0.000732  -0.006800  -0.048571  -0.026061   0.021444  -0.002893
     27       0.170319  -0.101039  -0.191091   0.358316  -0.000409  -0.002731
     28      -0.010374  -0.003047  -0.006346   0.011452   0.000169  -0.000019
     29       0.265413  -0.155576  -0.300864   0.563602  -0.000398  -0.004449
     30      -0.349596  -0.065515  -0.161543   0.323222  -0.025397   0.001030
     31       0.433951   0.088474   0.212743  -0.424452   0.031165  -0.002308
     32       0.000063   0.001760   0.005510  -0.009417   0.002383  -0.000070
     33       0.424876  -0.030421  -0.032921   0.044195   0.020629  -0.002612
     34       0.627520  -0.051201  -0.057371   0.083542   0.029587  -0.001263
     35       0.004532   0.001847   0.004123  -0.004555  -0.000381   0.001350
     36       0.025966   0.447204  -0.093248   0.063600  -0.000208   0.002636
     37       0.000642   0.009421  -0.002621   0.002584   0.000228  -0.000027
     38       0.034529   0.634411  -0.131225   0.089021   0.000038   0.003474
     39      -0.025571  -0.119416   0.006742  -0.017423  -0.019661  -0.002280
     40      -0.002208  -0.005439  -0.001556  -0.001980  -0.002847  -0.002159
     41       0.033985   0.143697  -0.007786   0.021238   0.026669   0.002375
     42      -0.000527   0.314074  -0.082335   0.042977  -0.019275  -0.002437
     43       0.003076  -0.435846   0.114902  -0.061450   0.030336   0.002876
     44      -0.001358  -0.021106   0.004386  -0.002911   0.001177   0.000599
     45      -0.000556  -0.000034   0.012809   0.002614  -0.004615  -0.450387
     46       0.000503   0.000310   0.001927   0.000602   0.000532  -0.023566
     47       0.001519  -0.000386  -0.016640  -0.004085   0.004313   0.548520
     48      -0.003438   0.004946   0.010006   0.007406   0.000848  -0.389757
     49      -0.001900   0.006592   0.012197   0.009667   0.003488  -0.575982
     50       0.000771   0.000253   0.001147   0.000675  -0.000302  -0.040620
     51      -0.000003  -0.000009  -0.000033  -0.000023   0.000007   0.000007
     52      -0.000004  -0.000006  -0.000029  -0.000016   0.000045   0.000006
     53      -0.000005  -0.000002   0.000022   0.000005   0.000052  -0.000004


-----------
IR SPECTRUM
-----------

 Mode    freq (cm**-1)   T**2         TX         TY         TZ
-------------------------------------------------------------------
   8:        78.76   32.406903  (  3.399687  -0.752648   4.503616)
   9:       107.08    1.477168  ( -0.862800  -0.728205   0.449957)
  10:       178.71    1.976473  (  0.974273  -0.883573   0.496551)
  11:       221.67    0.090908  ( -0.255152  -0.140521   0.077842)
  12:       263.52    0.914736  ( -0.295776  -0.023720  -0.909225)
  13:       266.66    0.493341  ( -0.693898  -0.106541   0.022252)
  14:       286.36    1.981089  ( -0.938398   0.466046  -0.939840)
  15:       329.06    0.252563  (  0.368502   0.253352  -0.229307)
  16:       385.90    0.622229  (  0.363554   0.138463   0.686211)
  17:       404.64    0.770687  (  0.668422   0.400896  -0.403957)
  18:       451.32    7.145770  (  1.706401  -0.745182   1.917986)
  19:       658.40   54.658944  ( -4.732741   2.272654  -5.205300)
  20:       766.33    3.986698  ( -1.370229   1.150171  -0.886723)
  21:       857.12    3.192273  ( -1.403163  -0.865362   0.688879)
  22:       918.62   30.969664  ( -3.753529   3.730499  -1.721645)
  23:       935.28    9.670343  ( -1.724796   0.250768  -2.575371)
  24:       939.23    2.000703  ( -0.893576  -0.754378   0.795701)
  25:       948.23    1.157425  ( -1.002442  -0.342150   0.188329)
  26:      1024.20    0.952511  ( -0.550924  -0.025975  -0.805183)
  27:      1026.90    0.122765  ( -0.021826  -0.157723   0.312109)
  28:      1125.05    2.604530  (  1.115005   0.866510  -0.781316)
  29:      1203.15   25.301053  ( -3.177850   1.097798  -3.741278)
  30:      1271.71   39.813889  (  3.917528  -1.604322   4.678997)
  31:      1280.84   10.499334  ( -1.298811   2.645219   1.347309)
  32:      1292.47    1.962275  (  0.923485   0.911483  -0.527872)
  33:      1350.80   21.500235  (  2.114516   0.701513   4.066563)
  34:      1373.02   19.645478  (  3.198634   2.326212  -2.000739)
  35:      1384.45   19.245642  (  2.225146  -3.713218  -0.711605)
  36:      1424.56    6.926656  (  1.458767  -2.190099  -0.046056)
  37:      1432.38    0.123017  ( -0.230862  -0.131337   0.229065)
  38:      1433.98    0.019721  (  0.097284  -0.076742   0.066087)
  39:      1439.55    0.214858  ( -0.372441  -0.129121   0.243870)
  40:      1453.23    4.076771  ( -1.346616  -1.234208   0.860307)
  41:      1458.32   19.959435  ( -1.122798  -1.962805  -3.853071)
  42:      1469.77   19.496586  (  2.963483  -3.239448   0.469392)
  43:      3041.34   41.981082  ( -4.374450  -4.300969   2.084931)
  44:      3045.29   19.222919  ( -1.805329   1.696063   3.617607)
  45:      3058.00   22.196634  (  2.661113   0.028582   3.887711)
  46:      3108.82   15.126922  ( -0.711162  -1.955328  -3.286010)
  47:      3137.86   27.523468  (  3.206008  -1.699208  -3.789152)
  48:      3140.14   29.445335  ( -1.196331  -5.105541  -1.395556)
  49:      3144.38   16.998088  ( -1.457227   2.144701  -3.205438)
  50:      3148.23   36.881952  (  5.923231   1.315040  -0.260682)
  51:      3148.96   31.094359  ( -1.776531   3.177799  -4.223730)
  52:      3155.94   26.252994  (  1.542656  -4.300546  -2.319161)
  53:      3188.77    4.319522  (  1.490484   1.090414  -0.953403)

The first frequency considered to be a vibration is 8
The total number of vibrations considered is 46


--------------------------
THERMOCHEMISTRY AT 298.15K
--------------------------

Temperature         ... 298.15 K
Pressure            ... 1.00 atm
Total Mass          ... 186.50 AMU

Throughout the following assumptions are being made:
  (1) The electronic state is orbitally nondegenerate
  (2) There are no thermally accessible electronically excited states
  (3) Hindered rotations indicated by low frequency modes are not
      treated as such but are treated as vibrations and this may
      cause some error
  (4) All equations used are the standard statistical mechanics
      equations for an ideal gas
  (5) All vibrations are strictly harmonic

freq.      78.76  E(vib)   ...       0.49 
freq.     107.08  E(vib)   ...       0.45 
freq.     178.71  E(vib)   ...       0.37 
freq.     221.67  E(vib)   ...       0.33 
freq.     263.52  E(vib)   ...       0.29 
freq.     266.66  E(vib)   ...       0.29 
freq.     286.36  E(vib)   ...       0.27 
freq.     329.06  E(vib)   ...       0.24 
freq.     385.90  E(vib)   ...       0.20 
freq.     404.64  E(vib)   ...       0.19 
freq.     451.32  E(vib)   ...       0.16 
freq.     658.40  E(vib)   ...       0.08 
freq.     766.33  E(vib)   ...       0.06 
freq.     857.12  E(vib)   ...       0.04 
freq.     918.62  E(vib)   ...       0.03 
freq.     935.28  E(vib)   ...       0.03 
freq.     939.23  E(vib)   ...       0.03 
freq.     948.23  E(vib)   ...       0.03 
freq.    1024.20  E(vib)   ...       0.02 
freq.    1026.90  E(vib)   ...       0.02 
freq.    1125.05  E(vib)   ...       0.01 
freq.    1203.15  E(vib)   ...       0.01 
freq.    1271.71  E(vib)   ...       0.01 
freq.    1280.84  E(vib)   ...       0.01 
freq.    1292.47  E(vib)   ...       0.01 
freq.    1350.80  E(vib)   ...       0.01 
freq.    1373.02  E(vib)   ...       0.01 
freq.    1384.45  E(vib)   ...       0.00 
freq.    1424.56  E(vib)   ...       0.00 
freq.    1432.38  E(vib)   ...       0.00 
freq.    1433.98  E(vib)   ...       0.00 
freq.    1439.55  E(vib)   ...       0.00 
freq.    1453.23  E(vib)   ...       0.00 
freq.    1458.32  E(vib)   ...       0.00 
freq.    1469.77  E(vib)   ...       0.00 
freq.    3041.34  E(vib)   ...       0.00 
freq.    3045.29  E(vib)   ...       0.00 
freq.    3058.00  E(vib)   ...       0.00 
freq.    3108.82  E(vib)   ...       0.00 
freq.    3137.86  E(vib)   ...       0.00 
freq.    3140.14  E(vib)   ...       0.00 
freq.    3144.38  E(vib)   ...       0.00 
freq.    3148.23  E(vib)   ...       0.00 
freq.    3148.96  E(vib)   ...       0.00 
freq.    3155.94  E(vib)   ...       0.00 
freq.    3188.77  E(vib)   ...       0.00 

------------
INNER ENERGY
------------

The inner energy is: U= E(el) + E(ZPE) + E(vib) + E(rot) + E(trans)
    E(el)   - is the total energy from the electronic structure calculation
              = E(kin-el) + E(nuc-el) + E(el-el) + E(nuc-nuc)
    E(ZPE)  - the the zero temperature vibrational energy from the frequency calculation
    E(vib)  - the the finite temperature correction to E(ZPE) due to population
              of excited vibrational states
    E(rot)  - is the rotational thermal energy
    E(trans)- is the translational thermal energy

Summary of contributions to the inner energy U:
Electronic energy                ...  -3230.40274141 Eh
Zero point energy                ...      0.14980998 Eh      94.01 kcal/mol
Thermal vibrational correction   ...      0.00594720 Eh       3.73 kcal/mol
Thermal rotational correction    ...      0.00141627 Eh       0.89 kcal/mol
Thermal translational correction ...      0.00141627 Eh       0.89 kcal/mol
-----------------------------------------------------------------------
Total thermal energy                  -3230.24415168 Eh


Summary of corrections to the electronic energy:
(perhaps to be used in another calculation)
Total thermal correction                  0.00877975 Eh       5.51 kcal/mol
Non-thermal (ZPE) correction              0.14980998 Eh      94.01 kcal/mol
-----------------------------------------------------------------------
Total correction                          0.15858973 Eh      99.52 kcal/mol


--------
ENTHALPY
--------

The enthalpy is H = U + kB*T
                kB is Boltzmann's constant
Total free energy                 ...  -3230.24415168 Eh 
Thermal Enthalpy correction       ...      0.00094421 Eh       0.59 kcal/mol
-----------------------------------------------------------------------
Total Enthalpy                    ...  -3230.24320747 Eh


Note: Only C1 symmetry has been detected, increase convergence thresholds 
      if your molecule has a higher symmetry. Symmetry factor of 1.0 is   
      used for the rotational entropy correction. 
 

Note: Rotational entropy computed according to Herzberg 
Infrared and Raman Spectra, Chapter V,1, Van Nostrand Reinhold, 1945 
Point Group:  C1, Symmetry Number:   1  
Rotational constants in cm-1:     0.107018     0.010698     0.010408 

Vibrational entropy computed according to the QRRHO of S. Grimme
Chem.Eur.J. 2012 18 9955


-------
ENTROPY
-------

The entropy contributions are T*S = T*(S(el)+S(vib)+S(rot)+S(trans))
     S(el)   - electronic entropy
     S(vib)  - vibrational entropy
     S(rot)  - rotational entropy
     S(trans)- translational entropy
The entropies will be listed as mutliplied by the temperature to get
units of energy

Electronic entropy                ...      0.00000000 Eh      0.00 kcal/mol
Vibrational entropy               ...      0.01010219 Eh      6.34 kcal/mol
Rotational entropy                ...      0.01486322 Eh      9.33 kcal/mol
Translational entropy             ...      0.01975392 Eh     12.40 kcal/mol
-----------------------------------------------------------------------
Final entropy term                ...      0.04471933 Eh     28.06 kcal/mol

In case the symmetry of your molecule has not been determined correctly
or in case you have a reason to use a different symmetry number we print 
out the resulting rotational entropy values for sn=1,12 :
 --------------------------------------------------------
|  sn= 1 | S(rot)=       0.01486322 Eh      9.33 kcal/mol|
|  sn= 2 | S(rot)=       0.01420877 Eh      8.92 kcal/mol|
|  sn= 3 | S(rot)=       0.01382593 Eh      8.68 kcal/mol|
|  sn= 4 | S(rot)=       0.01355431 Eh      8.51 kcal/mol|
|  sn= 5 | S(rot)=       0.01334362 Eh      8.37 kcal/mol|
|  sn= 6 | S(rot)=       0.01317148 Eh      8.27 kcal/mol|
|  sn= 7 | S(rot)=       0.01302593 Eh      8.17 kcal/mol|
|  sn= 8 | S(rot)=       0.01289985 Eh      8.09 kcal/mol|
|  sn= 9 | S(rot)=       0.01278865 Eh      8.02 kcal/mol|
|  sn=10 | S(rot)=       0.01268917 Eh      7.96 kcal/mol|
|  sn=11 | S(rot)=       0.01259918 Eh      7.91 kcal/mol|
|  sn=12 | S(rot)=       0.01251702 Eh      7.85 kcal/mol|
 --------------------------------------------------------


-------------------
GIBBS FREE ENERGY
-------------------

The Gibbs free energy is G = H - T*S

Total enthalpy                    ...  -3230.24320747 Eh 
Total entropy correction          ...     -0.04471933 Eh    -28.06 kcal/mol
-----------------------------------------------------------------------
Final Gibbs free energy         ...  -3230.28792681 Eh

For completeness - the Gibbs free energy minus the electronic energy
G-E(el)                           ...      0.11481460 Eh     72.05 kcal/mol

[1631722014.713897] [comp0807:16629:0]            sys.c:618  UCX  ERROR shmget(size=2097152 flags=0xfb0) for mm_recv_desc failed: Operation not permitted, please check shared memory limits by 'ipcs -l'
[1631722014.718634] [comp0807:16627:0]            sys.c:618  UCX  ERROR shmget(size=2097152 flags=0xfb0) for mm_recv_desc failed: Operation not permitted, please check shared memory limits by 'ipcs -l'
[1631722014.745845] [comp0807:16630:0]            sys.c:618  UCX  ERROR shmget(size=2097152 flags=0xfb0) for mm_recv_desc failed: Operation not permitted, please check shared memory limits by 'ipcs -l'
[1631722014.746822] [comp0807:16628:0]            sys.c:618  UCX  ERROR shmget(size=2097152 flags=0xfb0) for mm_recv_desc failed: Operation not permitted, please check shared memory limits by 'ipcs -l'
[1631722014.755096] [comp0807:16627:0]            sys.c:618  UCX  ERROR shmget(size=2097152 flags=0xb80) for ucp_am_bufs failed: Operation not permitted, please check shared memory limits by 'ipcs -l'
[1631722014.755769] [comp0807:16630:0]            sys.c:618  UCX  ERROR shmget(size=2097152 flags=0xb80) for ucp_am_bufs failed: Operation not permitted, please check shared memory limits by 'ipcs -l'

Timings for individual modules:

Sum of individual times         ...      135.623 sec (=   2.260 min)
GTO integral calculation        ...        1.150 sec (=   0.019 min)   0.8 %
SCF iterations                  ...       16.602 sec (=   0.277 min)  12.2 %
Analytical frequency calculation...      117.871 sec (=   1.965 min)  86.9 %
                             ****ORCA TERMINATED NORMALLY****
TOTAL RUN TIME: 0 days 0 hours 2 minutes 17 seconds 193 msec
