
                                 *****************
                                 * O   R   C   A *
                                 *****************

           --- An Ab Initio, DFT and Semiempirical electronic structure package ---

                  #######################################################
                  #                        -***-                        #
                  #          Department of theory and spectroscopy      #
                  #               Directorship: Frank Neese             #
                  #        Max Planck Institute fuer Kohlenforschung    #
                  #                Kaiser Wilhelm Platz 1               #
                  #                 D-45470 Muelheim/Ruhr               #
                  #                      Germany                        #
                  #                                                     #
                  #                  All rights reserved                #
                  #                        -***-                        #
                  #######################################################


                         Program Version 4.2.1 -  RELEASE  -


 With contributions from (in alphabetic order):
   Daniel Aravena         : Magnetic Suceptibility
   Michael Atanasov       : Ab Initio Ligand Field Theory (pilot matlab implementation)
   Alexander A. Auer      : GIAO ZORA, VPT2
   Ute Becker             : Parallelization
   Giovanni Bistoni       : ED, misc. LED, open-shell LED, HFLD
   Martin Brehm           : Molecular dynamics
   Dmytro Bykov           : SCF Hessian
   Vijay G. Chilkuri      : MRCI spin determinant printing, contributions to CSF-ICE
   Dipayan Datta          : RHF DLPNO-CCSD density
   Achintya Kumar Dutta   : EOM-CC, STEOM-CC
   Dmitry Ganyushin       : Spin-Orbit,Spin-Spin,Magnetic field MRCI
   Miquel Garcia          : C-PCM Hessian, Gaussian charge scheme
   Yang Guo               : DLPNO-NEVPT2, CIM, IAO-localization
   Andreas Hansen         : Spin unrestricted coupled pair/coupled cluster methods
   Benjamin Helmich-Paris : CASSCF linear response (MC-RPA)
   Lee Huntington         : MR-EOM, pCC
   Robert Izsak           : Overlap fitted RIJCOSX, COSX-SCS-MP3, EOM
   Christian Kollmar      : KDIIS, OOCD, Brueckner-CCSD(T), CCSD density
   Simone Kossmann        : Meta GGA functionals, TD-DFT gradient, OOMP2, MP2 Hessian
   Martin Krupicka        : AUTO-CI
   Lucas Lang             : DCDCAS
   Dagmar Lenk            : GEPOL surface, SMD
   Dimitrios Liakos       : Extrapolation schemes; Compound Job, initial MDCI parallelization
   Dimitrios Manganas     : Further ROCIS development; embedding schemes
   Dimitrios Pantazis     : SARC Basis sets
   Taras Petrenko         : DFT Hessian,TD-DFT gradient, ASA, ECA, R-Raman, ABS, FL, XAS/XES, NRVS
   Peter Pinski           : DLPNO-MP2, DLPNO-MP2 Gradient
   Christoph Reimann      : Effective Core Potentials
   Marius Retegan         : Local ZFS, SOC
   Christoph Riplinger    : Optimizer, TS searches, QM/MM, DLPNO-CCSD(T), (RO)-DLPNO pert. Triples
   Tobias Risthaus        : Range-separated hybrids, TD-DFT gradient, RPA, STAB
   Michael Roemelt        : Original ROCIS implementation
   Masaaki Saitow         : Open-shell DLPNO-CCSD energy and density
   Barbara Sandhoefer     : DKH picture change effects
   Avijit Sen             : IP-ROCIS
   Kantharuban Sivalingam : CASSCF convergence, NEVPT2, FIC-MRCI
   Bernardo de Souza      : ESD, SOC TD-DFT
   Georgi Stoychev        : AutoAux, RI-MP2 NMR
   Willem Van den Heuvel  : Paramagnetic NMR
   Boris Wezisla          : Elementary symmetry handling
   Frank Wennmohs         : Technical directorship


 We gratefully acknowledge several colleagues who have allowed us to
 interface, adapt or use parts of their codes:
   Stefan Grimme, W. Hujo, H. Kruse,             : VdW corrections, initial TS optimization,
                  C. Bannwarth                     DFT functionals, gCP, sTDA/sTD-DF
   Ed Valeev, F. Pavosevic, A. Kumar             : LibInt (2-el integral package), F12 methods
   Garnet Chan, S. Sharma, J. Yang, R. Olivares  : DMRG
   Ulf Ekstrom                                   : XCFun DFT Library
   Mihaly Kallay                                 : mrcc  (arbitrary order and MRCC methods)
   Andreas Klamt, Michael Diedenhofen            : otool_cosmo (COSMO solvation model)
   Jiri Pittner, Ondrej Demel                    : Mk-CCSD
   Frank Weinhold                                : gennbo (NPA and NBO analysis)
   Christopher J. Cramer and Donald G. Truhlar   : smd solvation model
   Lars Goerigk                                  : TD-DFT with DH, B97 family of functionals
   V. Asgeirsson, H. Jonsson                     : NEB implementation
   FAccTs GmbH                                   : IRC, NEB, NEB-TS, Multilevel, MM, QM/MM, CI optimization
   S Lehtola, MJT Oliveira, MAL Marques          : LibXC Library


 Your calculation uses the libint2 library for the computation of 2-el integrals
 For citations please refer to: http://libint.valeyev.net

 Your ORCA version has been built with support for libXC version: 4.2.3
 For citations please refer to: https://tddft.org/programs/libxc/

 This ORCA versions uses:
   CBLAS   interface :  Fast vector & matrix operations
   LAPACKE interface :  Fast linear algebra routines
   SCALAPACK package :  Parallel linear algebra routines


Your calculation utilizes the atom-pairwise dispersion correction
with the Becke-Johnson damping scheme (D3BJ)
Cite in your paper:
S.Grimme, S.Ehrlich, L.Goerigk, J Comput Chem, (2011), 32, 1456–1465 
S.Grimme, J.Antony, S.Ehrlich and H.Krieg, J.Chem.Phys., 132, (2010), 154104 
   

----- Orbital basis set information -----
Your calculation utilizes the basis: def2-SVP
   F. Weigend and R. Ahlrichs, Phys. Chem. Chem. Phys. 7, 3297 (2005).

----- AuxJ basis set information -----
Your calculation utilizes the auxiliary basis: def2/J
   F. Weigend, Phys. Chem. Chem. Phys. 8, 1057 (2006).

================================================================================
                                        WARNINGS
                       Please study these warnings very carefully!
================================================================================


INFO   : the flag for use of LIBINT has been found!

================================================================================
                                       INPUT FILE
================================================================================
NAME = manual_reactants_331_freq.inp
|  1> ! Freq PBE0 RIJCOSX D3BJ def2-SVP def2/J CPCM(Acetone)
|  2> %geom MaxIter 100 end
|  3> %output 
|  4> xyzfile=True 
|  5> end 
|  6> %scf 
|  7> maxiter 250 
|  8> end
|  9> %output
| 10> Print[P_Hirshfeld] = 1
| 11> end
| 12> % maxcore
| 13> 4000
| 14> %pal nprocs 4
| 15> end
| 16> *xyz -1 1
| 17> C   -0.61108554176992     -1.90249414589183      0.55494595273581
| 18>   C   -1.37841775324750     -1.04775266750953     -0.45318454490537
| 19>   C   -2.05742934635369      0.12093870145648      0.25888003679094
| 20>   C   -2.44118206386911     -1.90605156219998     -1.15290204663041
| 21>   C   -0.46229204020463     -0.55309718998576     -1.57049086949790
| 22>   Br  1.00294538938316      0.61066976669421     -0.98235235066098
| 23>   H   -0.08241866324401     -2.72997737426736      0.05533746475356
| 24>   H   -1.30803120363562     -2.33650657672195      1.28936846085394
| 25>   H   0.12480798822772     -1.30068320638508      1.10990699698411
| 26>   H   -2.59855694391767      0.76269462546613     -0.45560262348556
| 27>   H   -2.78329163944189     -0.25699384339277      0.99589190896292
| 28>   H   -1.32343503744666      0.73942144353444      0.79802700530080
| 29>   H   -1.98409899213694     -2.75454955972489     -1.68601762793028
| 30>   H   -3.14595057362930     -2.31052543882069     -0.40972196089222
| 31>   H   -3.01799082420076     -1.31215181322623     -1.88018477015494
| 32>   H   0.02987171685988     -1.39045121992434     -2.08264438844943
| 33>   H   -1.01758317502325      0.04724751256440     -2.30303408342632
| 34>   Br  0.78053870365019      0.98354254833478      3.44395743965134
| 35> *
| 36> 
| 37>                          ****END OF INPUT****
================================================================================

                       ****************************
                       * Single Point Calculation *
                       ****************************

---------------------------------
CARTESIAN COORDINATES (ANGSTROEM)
---------------------------------
  C     -0.611086   -1.902494    0.554946
  C     -1.378418   -1.047753   -0.453185
  C     -2.057429    0.120939    0.258880
  C     -2.441182   -1.906052   -1.152902
  C     -0.462292   -0.553097   -1.570491
  Br     1.002945    0.610670   -0.982352
  H     -0.082419   -2.729977    0.055337
  H     -1.308031   -2.336507    1.289368
  H      0.124808   -1.300683    1.109907
  H     -2.598557    0.762695   -0.455603
  H     -2.783292   -0.256994    0.995892
  H     -1.323435    0.739421    0.798027
  H     -1.984099   -2.754550   -1.686018
  H     -3.145951   -2.310525   -0.409722
  H     -3.017991   -1.312152   -1.880185
  H      0.029872   -1.390451   -2.082644
  H     -1.017583    0.047248   -2.303034
  Br     0.780539    0.983543    3.443957

----------------------------
CARTESIAN COORDINATES (A.U.)
----------------------------
  NO LB      ZA    FRAG     MASS         X           Y           Z
   0 C     6.0000    0    12.011   -1.154784   -3.595193    1.048696
   1 C     6.0000    0    12.011   -2.604832   -1.979966   -0.856395
   2 C     6.0000    0    12.011   -3.887978    0.228541    0.489212
   3 C     6.0000    0    12.011   -4.613166   -3.601915   -2.178669
   4 C     6.0000    0    12.011   -0.873605   -1.045202   -2.967798
   5 Br   35.0000    0    79.900    1.895292    1.153999   -1.856377
   6 H     1.0000    0     1.008   -0.155749   -5.158910    0.104573
   7 H     1.0000    0     1.008   -2.471821   -4.415358    2.436553
   8 H     1.0000    0     1.008    0.235853   -2.457935    2.097420
   9 H     1.0000    0     1.008   -4.910561    1.441284   -0.860964
  10 H     1.0000    0     1.008   -5.259659   -0.485648    1.881963
  11 H     1.0000    0     1.008   -2.500930    1.397304    1.508052
  12 H     1.0000    0     1.008   -3.749404   -5.205344   -3.186112
  13 H     1.0000    0     1.008   -5.944985   -4.366260   -0.774262
  14 H     1.0000    0     1.008   -5.703176   -2.479608   -3.553034
  15 H     1.0000    0     1.008    0.056449   -2.627572   -3.935628
  16 H     1.0000    0     1.008   -1.922954    0.089285   -4.352104
  17 Br   35.0000    0    79.900    1.475004    1.858626    6.508136

--------------------------------
INTERNAL COORDINATES (ANGSTROEM)
--------------------------------
 C      0   0   0     0.000000000000     0.00000000     0.00000000
 C      1   0   0     1.528302593701     0.00000000     0.00000000
 C      2   1   0     1.527721253362   110.09265168     0.00000000
 C      2   1   3     1.534845124036   109.61049651   239.58863675
 C      2   1   3     1.527201292075   111.25739276   123.60327391
 Br     5   2   1     1.961423251587   114.89297211   297.75152276
 H      1   2   3     1.101737628910   111.21377955   182.14113523
 H      1   2   3     1.101579078477   110.02776634    62.44293460
 H      1   2   3     1.100771300060   111.25078432   303.30416667
 H      3   2   1     1.102340788814   111.18860890   178.75137410
 H      3   2   1     1.101315384759   110.01930118   298.42697288
 H      3   2   1     1.100885099095   111.20495416    57.69932737
 H      4   2   1     1.101401838246   111.35291167   300.26190409
 H      4   2   1     1.101187726528   109.93074865    59.93307532
 H      4   2   1     1.101982494309   111.21885429   179.44809133
 H      5   2   1     1.098038324557   111.29153676    56.79674603
 H      5   2   1     1.097898705055   111.21400547   179.07613094
 Br     9   1   2     3.330985070304   149.29226953    73.63494912

---------------------------
INTERNAL COORDINATES (A.U.)
---------------------------
 C      0   0   0     0.000000000000     0.00000000     0.00000000
 C      1   0   0     2.888073351856     0.00000000     0.00000000
 C      2   1   0     2.886974777825   110.09265168     0.00000000
 C      2   1   3     2.900436942413   109.61049651   239.58863675
 C      2   1   3     2.885992193393   111.25739276   123.60327391
 Br     5   2   1     3.706552778204   114.89297211   297.75152276
 H      1   2   3     2.081982390076   111.21377955   182.14113523
 H      1   2   3     2.081682773180   110.02776634    62.44293460
 H      1   2   3     2.080156293194   111.25078432   303.30416667
 H      3   2   1     2.083122197109   111.18860890   178.75137410
 H      3   2   1     2.081184464268   110.01930118   298.42697288
 H      3   2   1     2.080371342204   111.20495416    57.69932737
 H      4   2   1     2.081347837683   111.35291167   300.26190409
 H      4   2   1     2.080943225173   109.93074865    59.93307532
 H      4   2   1     2.082445118620   111.21885429   179.44809133
 H      5   2   1     2.074991717963   111.29153676    56.79674603
 H      5   2   1     2.074727875340   111.21400547   179.07613094
 Br     9   1   2     6.294649539055   149.29226953    73.63494912

---------------------
BASIS SET INFORMATION
---------------------
There are 3 groups of distinct atoms

 Group   1 Type C   : 7s4p1d contracted to 3s2p1d pattern {511/31/1}
 Group   2 Type Br  : 14s10p6d contracted to 5s4p3d pattern {63311/5311/411}
 Group   3 Type H   : 4s1p contracted to 2s1p pattern {31/1}

Atom   0C    basis set group =>   1
Atom   1C    basis set group =>   1
Atom   2C    basis set group =>   1
Atom   3C    basis set group =>   1
Atom   4C    basis set group =>   1
Atom   5Br   basis set group =>   2
Atom   6H    basis set group =>   3
Atom   7H    basis set group =>   3
Atom   8H    basis set group =>   3
Atom   9H    basis set group =>   3
Atom  10H    basis set group =>   3
Atom  11H    basis set group =>   3
Atom  12H    basis set group =>   3
Atom  13H    basis set group =>   3
Atom  14H    basis set group =>   3
Atom  15H    basis set group =>   3
Atom  16H    basis set group =>   3
Atom  17Br   basis set group =>   2
---------------------------------
AUXILIARY/J BASIS SET INFORMATION
---------------------------------
There are 3 groups of distinct atoms

 Group   1 Type C   : 12s5p4d2f1g contracted to 6s4p3d1f1g pattern {711111/2111/211/2/1}
 Group   2 Type Br  : 19s5p5d3f1g contracted to 8s4p3d2f1g pattern {121111111/2111/311/21/1}
 Group   3 Type H   : 5s2p1d contracted to 3s1p1d pattern {311/2/1}

Atom   0C    basis set group =>   1
Atom   1C    basis set group =>   1
Atom   2C    basis set group =>   1
Atom   3C    basis set group =>   1
Atom   4C    basis set group =>   1
Atom   5Br   basis set group =>   2
Atom   6H    basis set group =>   3
Atom   7H    basis set group =>   3
Atom   8H    basis set group =>   3
Atom   9H    basis set group =>   3
Atom  10H    basis set group =>   3
Atom  11H    basis set group =>   3
Atom  12H    basis set group =>   3
Atom  13H    basis set group =>   3
Atom  14H    basis set group =>   3
Atom  15H    basis set group =>   3
Atom  16H    basis set group =>   3
Atom  17Br   basis set group =>   2
[1631286046.935149] [comp0802:208602:0]            sys.c:618  UCX  ERROR shmget(size=2097152 flags=0xfb0) for mm_recv_desc failed: Operation not permitted, please check shared memory limits by 'ipcs -l'
[1631286046.937378] [comp0802:208603:0]            sys.c:618  UCX  ERROR shmget(size=2097152 flags=0xfb0) for mm_recv_desc failed: Operation not permitted, please check shared memory limits by 'ipcs -l'
[1631286046.937414] [comp0802:208596:0]            sys.c:618  UCX  ERROR shmget(size=2097152 flags=0xfb0) for mm_recv_desc failed: Operation not permitted, please check shared memory limits by 'ipcs -l'
[1631286046.940712] [comp0802:208592:0]            sys.c:618  UCX  ERROR shmget(size=2097152 flags=0xfb0) for mm_recv_desc failed: Operation not permitted, please check shared memory limits by 'ipcs -l'
[1631286046.982562] [comp0802:208592:0]            sys.c:618  UCX  ERROR shmget(size=2097152 flags=0xb80) for ucp_am_bufs failed: Operation not permitted, please check shared memory limits by 'ipcs -l'
[1631286046.986489] [comp0802:208602:0]            sys.c:618  UCX  ERROR shmget(size=2097152 flags=0xb80) for ucp_am_bufs failed: Operation not permitted, please check shared memory limits by 'ipcs -l'
[1631286046.987097] [comp0802:208596:0]            sys.c:618  UCX  ERROR shmget(size=2097152 flags=0xb80) for ucp_am_bufs failed: Operation not permitted, please check shared memory limits by 'ipcs -l'
[1631286046.987115] [comp0802:208603:0]            sys.c:618  UCX  ERROR shmget(size=2097152 flags=0xb80) for ucp_am_bufs failed: Operation not permitted, please check shared memory limits by 'ipcs -l'


           ************************************************************
           *        Program running with 4 parallel MPI-processes     *
           *              working on a common directory               *
           ************************************************************
------------------------------------------------------------------------------
                           ORCA GTO INTEGRAL CALCULATION
                           -- RI-GTO INTEGRALS CHOSEN --
------------------------------------------------------------------------------

                         BASIS SET STATISTICS AND STARTUP INFO

Gaussian basis set:
 # of primitive gaussian shells          ...  175
 # of primitive gaussian functions       ...  345
 # of contracted shells                  ...   87
 # of contracted basis functions         ...  189
 Highest angular momentum                ...    2
 Maximum contraction depth               ...    6
Auxiliary gaussian basis set:
 # of primitive gaussian shells          ...  274
 # of primitive gaussian functions       ...  704
 # of contracted shells                  ...  166
 # of contracted aux-basis functions     ...  482
 Highest angular momentum                ...    4
 Maximum contraction depth               ...   12
Ratio of auxiliary to basis functions    ...  2.55
Integral package used                  ... LIBINT
 One Electron integrals                  ... done
 Ordering auxiliary basis shells         ... done
 Integral threshhold             Thresh  ...  1.000e-10
 Primitive cut-off               TCut    ...  1.000e-11
 Pre-screening matrix                    ... done
 Shell pair data                         ... 
 Ordering of the shell pairs             ... done (   0.000 sec) 3363 of 3828 pairs
 Determination of significant pairs      ... done (   0.000 sec)
 Creation of shell pair data             ... done (   0.000 sec)
 Storage of shell pair data              ... done (   0.014 sec)
 Shell pair data done in (   0.015 sec)
 Computing two index integrals           ... done
 Cholesky decomposition of the V-matrix  ... done


Timings:
 Total evaluation time                   ...   0.371 sec (  0.006 min)
 One electron matrix time                ...   0.029 sec (  0.000 min) =  7.9%
 Schwartz matrix evaluation time         ...   0.139 sec (  0.002 min) = 37.4%
 Two index repulsion integral time       ...   0.005 sec (  0.000 min) =  1.3%
 Cholesky decomposition of V             ...   0.152 sec (  0.003 min) = 40.9%
 Three index repulsion integral time     ...   0.000 sec (  0.000 min) =  0.0%

[1631286049.764181] [comp0802:208666:0]            sys.c:618  UCX  ERROR shmget(size=2097152 flags=0xfb0) for mm_recv_desc failed: Operation not permitted, please check shared memory limits by 'ipcs -l'
[1631286049.767148] [comp0802:208658:0]            sys.c:618  UCX  ERROR shmget(size=2097152 flags=0xfb0) for mm_recv_desc failed: Operation not permitted, please check shared memory limits by 'ipcs -l'
[1631286049.768692] [comp0802:208664:0]            sys.c:618  UCX  ERROR shmget(size=2097152 flags=0xfb0) for mm_recv_desc failed: Operation not permitted, please check shared memory limits by 'ipcs -l'
[1631286049.772378] [comp0802:208662:0]            sys.c:618  UCX  ERROR shmget(size=2097152 flags=0xfb0) for mm_recv_desc failed: Operation not permitted, please check shared memory limits by 'ipcs -l'
[1631286049.827135] [comp0802:208664:0]            sys.c:618  UCX  ERROR shmget(size=2097152 flags=0xb80) for ucp_am_bufs failed: Operation not permitted, please check shared memory limits by 'ipcs -l'
[1631286049.827135] [comp0802:208658:0]            sys.c:618  UCX  ERROR shmget(size=2097152 flags=0xb80) for ucp_am_bufs failed: Operation not permitted, please check shared memory limits by 'ipcs -l'
[1631286049.827833] [comp0802:208662:0]            sys.c:618  UCX  ERROR shmget(size=2097152 flags=0xb80) for ucp_am_bufs failed: Operation not permitted, please check shared memory limits by 'ipcs -l'


           ************************************************************
           *        Program running with 4 parallel MPI-processes     *
           *              working on a common directory               *
           ************************************************************
-------------------------------------------------------------------------------
                                 ORCA SCF
-------------------------------------------------------------------------------

------------
SCF SETTINGS
------------
Hamiltonian:
 Density Functional     Method          .... DFT(GTOs)
[1631286049.831211] [comp0802:208666:0]            sys.c:618  UCX  ERROR shmget(size=2097152 flags=0xb80) for ucp_am_bufs failed: Operation not permitted, please check shared memory limits by 'ipcs -l'
 Exchange Functional    Exchange        .... PBE
   PBE kappa parameter   XKappa         ....  0.804000
   PBE mue parameter    XMuePBE         ....  0.219520
 Correlation Functional Correlation     .... PBE
   PBE beta parameter  CBetaPBE         ....  0.066725
 LDA part of GGA corr.  LDAOpt          .... PW91-LDA
 Gradients option       PostSCFGGA      .... off
 Hybrid DFT is turned on
   Fraction HF Exchange ScalHFX         ....  0.250000
   Scaling of DF-GGA-X  ScalDFX         ....  0.750000
   Scaling of DF-GGA-C  ScalDFC         ....  1.000000
   Scaling of DF-LDA-C  ScalLDAC        ....  1.000000
   Perturbative correction              ....  0.000000
   Density functional embedding theory  .... OFF
   NL short-range parameter             ....  6.900000
 RI-approximation to the Coulomb term is turned on
   Number of auxiliary basis functions  .... 482
   RIJ-COSX (HFX calculated with COS-X)).... on


General Settings:
 Integral files         IntName         .... manual_reactants_331_freq
 Hartree-Fock type      HFTyp           .... RHF
 Total Charge           Charge          ....   -1
 Multiplicity           Mult            ....    1
 Number of Electrons    NEL             ....  112
 Basis Dimension        Dim             ....  189
 Nuclear Repulsion      ENuc            ....    732.4314473513 Eh

Convergence Acceleration:
 DIIS                   CNVDIIS         .... on
   Start iteration      DIISMaxIt       ....    12
   Startup error        DIISStart       ....  0.200000
   # of expansion vecs  DIISMaxEq       ....     5
   Bias factor          DIISBfac        ....   1.050
   Max. coefficient     DIISMaxC        ....  10.000
 Newton-Raphson         CNVNR           .... off
 SOSCF                  CNVSOSCF        .... on
   Start iteration      SOSCFMaxIt      ....   150
   Startup grad/error   SOSCFStart      ....  0.003300
 Level Shifting         CNVShift        .... on
   Level shift para.    LevelShift      ....    0.2500
   Turn off err/grad.   ShiftErr        ....    0.0010
 Zerner damping         CNVZerner       .... off
 Static damping         CNVDamp         .... on
   Fraction old density DampFac         ....    0.7000
   Max. Damping (<1)    DampMax         ....    0.9800
   Min. Damping (>=0)   DampMin         ....    0.0000
   Turn off err/grad.   DampErr         ....    0.1000
 Fernandez-Rico         CNVRico         .... off

SCF Procedure:
 Maximum # iterations   MaxIter         ....   250
 SCF integral mode      SCFMode         .... Direct
   Integral package                     .... LIBINT
 Reset frequency        DirectResetFreq ....    20
 Integral Threshold     Thresh          ....  1.000e-10 Eh
 Primitive CutOff       TCut            ....  1.000e-11 Eh

Convergence Tolerance:
 Convergence Check Mode ConvCheckMode   .... Total+1el-Energy
 Convergence forced     ConvForced      .... 0
 Energy Change          TolE            ....  1.000e-06 Eh
 1-El. energy change                    ....  1.000e-03 Eh
 Orbital Gradient       TolG            ....  5.000e-05
 Orbital Rotation angle TolX            ....  5.000e-05
 DIIS Error             TolErr          ....  1.000e-06


Diagonalization of the overlap matrix:
Smallest eigenvalue                        ... 1.572e-03
Time for diagonalization                   ...    0.163 sec
Threshold for overlap eigenvalues          ... 1.000e-08
Number of eigenvalues below threshold      ... 0
Time for construction of square roots      ...    0.003 sec
Total time needed                          ...    0.166 sec

-------------------
DFT GRID GENERATION
-------------------

General Integration Accuracy     IntAcc      ...  4.340
Radial Grid Type                 RadialGrid  ... Gauss-Chebyshev
Angular Grid (max. acc.)         AngularGrid ... Lebedev-110
Angular grid pruning method      GridPruning ... 3 (G Style)
Weight generation scheme         WeightScheme... Becke
Basis function cutoff            BFCut       ...    1.0000e-10
Integration weight cutoff        WCut        ...    1.0000e-14
Grids for H and He will be reduced by one unit

# of grid points (after initial pruning)     ...  22794 (   0.0 sec)
# of grid points (after weights+screening)   ...  21119 (   0.0 sec)
nearest neighbour list constructed           ...    0.0 sec
Grid point re-assignment to atoms done       ...    0.0 sec
Grid point division into batches done        ...    0.0 sec
Reduced shell lists constructed in    0.1 sec

Total number of grid points                  ...    21119
Total number of batches                      ...      342
Average number of points per batch           ...       61
Average number of grid points per atom       ...     1173
Average number of shells per batch           ...    64.51 (74.14%)
Average number of basis functions per batch  ...   134.62 (71.23%)
Average number of large shells per batch     ...    52.11 (80.79%)
Average number of large basis fcns per batch ...   105.01 (78.01%)
Maximum spatial batch extension              ...  16.72, 16.91, 12.75 au
Average spatial batch extension              ...   0.54,  0.55,  0.56 au

Time for grid setup =    0.142 sec

------------------------------
INITIAL GUESS: MODEL POTENTIAL
------------------------------
Loading Hartree-Fock densities                     ... done
Calculating cut-offs                               ... done
Setting up the integral package                    ... done
Initializing the effective Hamiltonian             ... done
Starting the Coulomb interaction                   ... done (   0.0 sec)
Reading the grid                                   ... done
Mapping shells                                     ... done
Starting the XC term evaluation                    ... done (   0.1 sec)
  promolecular density results
     # of electrons  =    110.997505329
     EX              =   -207.330859964
     EC              =     -4.753898308
     EX+EC           =   -212.084758272
Transforming the Hamiltonian                       ... done (   0.0 sec)
Diagonalizing the Hamiltonian                      ... done (   0.0 sec)
Back transforming the eigenvectors                 ... done (   0.0 sec)
Now organizing SCF variables                       ... done
                      ------------------
                      INITIAL GUESS DONE (   0.3 sec)
                      ------------------
--------------------
COSX GRID GENERATION
--------------------

General Integration Accuracy     IntAcc      ...  3.340
Radial Grid Type                 RadialGrid  ... Gauss-Chebyshev
Angular Grid (max. acc.)         AngularGrid ... Lebedev-50
Angular grid pruning method      GridPruning ... 3 (G Style)
Weight generation scheme         WeightScheme... Becke
Basis function cutoff            BFCut       ...    1.0000e-10
Integration weight cutoff        WCut        ...    1.0000e-14
Grids for H and He will be reduced by one unit

# of grid points (after initial pruning)     ...   8504 (   0.0 sec)
# of grid points (after weights+screening)   ...   7870 (   0.0 sec)
nearest neighbour list constructed           ...    0.0 sec
Grid point re-assignment to atoms done       ...    0.0 sec
Grid point division into batches done        ...    0.0 sec
Reduced shell lists constructed in    0.0 sec

Total number of grid points                  ...     7870
Total number of batches                      ...      134
Average number of points per batch           ...       58
Average number of grid points per atom       ...      437
Average number of shells per batch           ...    66.57 (76.52%)
Average number of basis functions per batch  ...   139.83 (73.98%)
Average number of large shells per batch     ...    55.54 (83.43%)
Average number of large basis fcns per batch ...   112.69 (80.59%)
Maximum spatial batch extension              ...  14.82,  9.35,  8.44 au
Average spatial batch extension              ...   0.60,  0.62,  0.61 au

Overlap Fitting                  UseSFitting ... on
Constructing numerical overlap ... done (      0.0 sec)
Inverting numerical overlap    ... done (      0.0 sec)
Obtaining analytic overlap     ... done (      0.0 sec)
Final contraction and storage  ... done (      0.0 sec)


General Integration Accuracy     IntAcc      ...  3.670
Radial Grid Type                 RadialGrid  ... Gauss-Chebyshev
Angular Grid (max. acc.)         AngularGrid ... Lebedev-50
Angular grid pruning method      GridPruning ... 3 (G Style)
Weight generation scheme         WeightScheme... Becke
Basis function cutoff            BFCut       ...    1.0000e-10
Integration weight cutoff        WCut        ...    1.0000e-14
Grids for H and He will be reduced by one unit

# of grid points (after initial pruning)     ...  10738 (   0.0 sec)
# of grid points (after weights+screening)   ...   9902 (   0.0 sec)
nearest neighbour list constructed           ...    0.0 sec
Grid point re-assignment to atoms done       ...    0.0 sec
Grid point division into batches done        ...    0.0 sec
Reduced shell lists constructed in    0.0 sec

Total number of grid points                  ...     9902
Total number of batches                      ...      166
Average number of points per batch           ...       59
Average number of grid points per atom       ...      550
Average number of shells per batch           ...    66.67 (76.64%)
Average number of basis functions per batch  ...   139.84 (73.99%)
Average number of large shells per batch     ...    54.84 (82.25%)
Average number of large basis fcns per batch ...   110.37 (78.93%)
Maximum spatial batch extension              ...  15.55, 11.91,  9.56 au
Average spatial batch extension              ...   0.57,  0.57,  0.56 au

Overlap Fitting                  UseSFitting ... on
Constructing numerical overlap ... done (      0.0 sec)
Inverting numerical overlap    ... done (      0.0 sec)
Obtaining analytic overlap     ... done (      0.0 sec)
Final contraction and storage  ... done (      0.0 sec)


General Integration Accuracy     IntAcc      ...  4.010
Radial Grid Type                 RadialGrid  ... Gauss-Chebyshev
Angular Grid (max. acc.)         AngularGrid ... Lebedev-110
Angular grid pruning method      GridPruning ... 3 (G Style)
Weight generation scheme         WeightScheme... Becke
Basis function cutoff            BFCut       ...    1.0000e-10
Integration weight cutoff        WCut        ...    1.0000e-14
Grids for H and He will be reduced by one unit

# of grid points (after initial pruning)     ...  19852 (   0.0 sec)
# of grid points (after weights+screening)   ...  18436 (   0.0 sec)
nearest neighbour list constructed           ...    0.0 sec
Grid point re-assignment to atoms done       ...    0.0 sec
Grid point division into batches done        ...    0.0 sec
Reduced shell lists constructed in    0.0 sec

Total number of grid points                  ...    18436
Total number of batches                      ...      297
Average number of points per batch           ...       62
Average number of grid points per atom       ...     1024
Average number of shells per batch           ...    64.82 (74.50%)
Average number of basis functions per batch  ...   135.50 (71.69%)
Average number of large shells per batch     ...    53.03 (81.81%)
Average number of large basis fcns per batch ...   107.08 (79.03%)
Maximum spatial batch extension              ...  16.19, 16.73, 13.14 au
Average spatial batch extension              ...   0.57,  0.59,  0.58 au

Overlap Fitting                  UseSFitting ... on
Constructing numerical overlap ... done (      0.0 sec)
Inverting numerical overlap    ... done (      0.0 sec)
Obtaining analytic overlap     ... done (      0.0 sec)
Final contraction and storage  ... done (      0.0 sec)

Time for X-Grid setup             =    0.231 sec

--------------------
CPCM SOLVATION MODEL
--------------------
CPCM parameters:
  Epsilon                                         ...      20.7000
  Refrac                                          ...       1.3590
  Rsolv                                           ...       1.3000
  Surface type                                    ...    GEPOL SES
  Epsilon function type                           ...         CPCM
Radii:
 Radius for C  used is    3.7795 Bohr (=   2.0000 Ang.)
 Radius for Br used is    4.0818 Bohr (=   2.1600 Ang.)
 Radius for H  used is    2.4566 Bohr (=   1.3000 Ang.)
Calculating surface                               ...        done! (  0.1s)
GEPOL surface points                              ...          848
GEPOL Volume                                      ...    1330.6295
GEPOL Surface-area                                ...     706.8044
Calculating surface distance matrix               ...        done! (  0.0s)
Performing Cholesky decomposition & store         ...        done! (  0.0s)
Overall time for CPCM initialization              ...                 0.1s
--------------
SCF ITERATIONS
--------------
ITER       Energy         Delta-E        Max-DP      RMS-DP      [F,P]     Damp
               ***  Starting incremental Fock matrix formation  ***
  0  -5343.8409994691   0.000000000000 0.11444683  0.00201949  0.1463490 0.7000
  1  -5343.9326977643  -0.091698295181 0.08668608  0.00150581  0.0779627 0.7000
                               ***Turning on DIIS***
  2  -5343.9729568862  -0.040259121890 0.16933442  0.00278085  0.0421141 0.0000
  3  -5344.0302543441  -0.057297457881 0.03753034  0.00095904  0.0418412 0.0000
  4  -5344.0453984854  -0.015144141280 0.01981287  0.00030193  0.0090821 0.0000
                      *** Initiating the SOSCF procedure ***
                           *** Shutting down DIIS ***
                      *** Re-Reading the Fockian *** 
                      *** Removing any level shift *** 
ITER      Energy       Delta-E        Grad      Rot      Max-DP    RMS-DP
  5  -5344.04607678  -0.0006782946  0.000882  0.000882  0.002423  0.000089
               *** Restarting incremental Fock matrix formation ***
  6  -5344.04609141  -0.0000146278  0.000409  0.000914  0.001184  0.000051
  7  -5344.04609352  -0.0000021161  0.000269  0.000209  0.000700  0.000014
  8  -5344.04609560  -0.0000020783  0.000022  0.000025  0.000089  0.000003
  9  -5344.04609539   0.0000002145  0.000018  0.000009  0.000043  0.000001
                 **** Energy Check signals convergence ****
              ***Rediagonalizing the Fockian in SOSCF/NRSCF***

               *****************************************************
               *                     SUCCESS                       *
               *           SCF CONVERGED AFTER  10 CYCLES          *
               *****************************************************

Setting up the final grid:

General Integration Accuracy     IntAcc      ...  4.670
Radial Grid Type                 RadialGrid  ... Gauss-Chebyshev
Angular Grid (max. acc.)         AngularGrid ... Lebedev-302
Angular grid pruning method      GridPruning ... 3 (G Style)
Weight generation scheme         WeightScheme... Becke
Basis function cutoff            BFCut       ...    1.0000e-10
Integration weight cutoff        WCut        ...    1.0000e-14
Grids for H and He will be reduced by one unit

# of grid points (after initial pruning)     ...  87626 (   0.0 sec)
# of grid points (after weights+screening)   ...  79840 (   0.1 sec)
nearest neighbour list constructed           ...    0.0 sec
Grid point re-assignment to atoms done       ...    0.0 sec
Grid point division into batches done        ...    0.3 sec
Reduced shell lists constructed in    0.4 sec

Total number of grid points                  ...    79840
Total number of batches                      ...     1257
Average number of points per batch           ...       63
Average number of grid points per atom       ...     4436
Average number of shells per batch           ...    61.59 (70.80%)
Average number of basis functions per batch  ...   127.70 (67.57%)
Average number of large shells per batch     ...    48.64 (78.97%)
Average number of large basis fcns per batch ...    96.92 (75.90%)
Maximum spatial batch extension              ...  14.99, 15.27, 13.27 au
Average spatial batch extension              ...   0.37,  0.40,  0.38 au

Final grid set up in    0.5 sec
Final integration                            ... done (   0.2 sec)
Change in XC energy                          ...     0.000009741
Integrated number of electrons               ...   112.000524104
Previous integrated no of electrons          ...   112.001336549
Old exchange energy                            =    -52.307935075 Eh
New exchange energy                            =    -52.307217228 Eh
Exchange energy change after final integration =      0.000717848 Eh
Total energy after final integration           =  -5344.045367992 Eh
Final COS-X integration done in                =     1.584 sec

----------------
TOTAL SCF ENERGY
----------------

Total Energy       :        -5344.04536799 Eh         -145418.86742 eV

Components:
Nuclear Repulsion  :          732.43144735 Eh           19930.47293 eV
Electronic Energy  :        -6076.47681534 Eh         -165349.34034 eV
One Electron Energy:        -8909.66833810 Eh         -242444.40111 eV
Two Electron Energy:         2833.19152275 Eh           77095.06077 eV
CPCM Dielectric    :           -0.11395144 Eh              -3.10078 eV

Virial components:
Potential Energy   :       -10680.56685853 Eh         -290632.99972 eV
Kinetic Energy     :         5336.52149054 Eh          145214.13230 eV
Virial Ratio       :            2.00140988


DFT components:
N(Alpha)           :       56.000262051885 electrons
N(Beta)            :       56.000262051885 electrons
N(Total)           :      112.000524103770 electrons
E(X)               :     -156.218516728856 Eh       
E(C)               :       -4.802580165561 Eh       
E(XC)              :     -161.021096894417 Eh       
DFET-embed. en.    :        0.000000000000 Eh       
CPCM Solvation Model Properties:
Surface-charge          :            0.97234865
Charge-correction       :           -0.00368304 Eh              -0.10022 eV
Free-energy (cav+disp)  :            0.00423859 Eh               0.11534 eV
Corrected G(solv)       :        -5344.04481245 Eh         -145418.85230 eV

---------------
SCF CONVERGENCE
---------------

  Last Energy change         ...   -1.9326e-07  Tolerance :   1.0000e-06
  Last MAX-Density change    ...    5.3291e-15  Tolerance :   1.0000e-05
  Last RMS-Density change    ...    9.8073e-17  Tolerance :   1.0000e-06
  Last Orbital Gradient      ...    3.1532e-06  Tolerance :   5.0000e-05
  Last Orbital Rotation      ...    2.8728e-06  Tolerance :   5.0000e-05

             **** THE GBW FILE WAS UPDATED (manual_reactants_331_freq.gbw) ****
             **** DENSITY FILE WAS UPDATED (manual_reactants_331_freq.scfp) ****
             **** ENERGY FILE WAS UPDATED (manual_reactants_331_freq.en.tmp) ****
             **** THE GBW FILE WAS UPDATED (manual_reactants_331_freq.gbw) ****
             **** DENSITY FILE WAS UPDATED (manual_reactants_331_freq.scfp) ****
----------------
ORBITAL ENERGIES
----------------

  NO   OCC          E(Eh)            E(eV) 
   0   2.0000    -483.169840    -13147.7198 
   1   2.0000    -483.059666    -13144.7218 
   2   2.0000     -62.605993     -1703.5957 
   3   2.0000     -62.494815     -1700.5704 
   4   2.0000     -56.395166     -1534.5905 
   5   2.0000     -56.392909     -1534.5291 
   6   2.0000     -56.392815     -1534.5265 
   7   2.0000     -56.282830     -1531.5337 
   8   2.0000     -56.282761     -1531.5318 
   9   2.0000     -56.282335     -1531.5202 
  10   2.0000     -10.273352      -279.5521 
  11   2.0000     -10.244478      -278.7664 
  12   2.0000     -10.218946      -278.0717 
  13   2.0000     -10.210622      -277.8452 
  14   2.0000     -10.210023      -277.8289 
  15   2.0000      -8.751281      -238.1345 
  16   2.0000      -8.638269      -235.0592 
  17   2.0000      -6.565636      -178.6600 
  18   2.0000      -6.553384      -178.3266 
  19   2.0000      -6.553352      -178.3258 
  20   2.0000      -6.444699      -175.3692 
  21   2.0000      -6.444576      -175.3658 
  22   2.0000      -6.444447      -175.3623 
  23   2.0000      -2.651093       -72.1399 
  24   2.0000      -2.647848       -72.0516 
  25   2.0000      -2.647732       -72.0484 
  26   2.0000      -2.637827       -71.7789 
  27   2.0000      -2.637800       -71.7782 
  28   2.0000      -2.531573       -68.8876 
  29   2.0000      -2.531549       -68.8870 
  30   2.0000      -2.531421       -68.8835 
  31   2.0000      -2.531325       -68.8809 
  32   2.0000      -2.531295       -68.8800 
  33   2.0000      -0.852808       -23.2061 
  34   2.0000      -0.786714       -21.4076 
  35   2.0000      -0.691908       -18.8278 
  36   2.0000      -0.686606       -18.6835 
  37   2.0000      -0.664735       -18.0884 
  38   2.0000      -0.647406       -17.6168 
  39   2.0000      -0.539195       -14.6722 
  40   2.0000      -0.470446       -12.8015 
  41   2.0000      -0.464263       -12.6332 
  42   2.0000      -0.447237       -12.1699 
  43   2.0000      -0.415728       -11.3125 
  44   2.0000      -0.402859       -10.9623 
  45   2.0000      -0.373123       -10.1532 
  46   2.0000      -0.364928        -9.9302 
  47   2.0000      -0.362265        -9.8577 
  48   2.0000      -0.344967        -9.3870 
  49   2.0000      -0.331363        -9.0168 
  50   2.0000      -0.325745        -8.8640 
  51   2.0000      -0.278261        -7.5719 
  52   2.0000      -0.277930        -7.5629 
  53   2.0000      -0.211869        -5.7652 
  54   2.0000      -0.211191        -5.7468 
  55   2.0000      -0.207661        -5.6507 
  56   0.0000       0.024988         0.6800 
  57   0.0000       0.073874         2.0102 
  58   0.0000       0.116413         3.1678 
  59   0.0000       0.119139         3.2419 
  60   0.0000       0.137397         3.7388 
  61   0.0000       0.142194         3.8693 
  62   0.0000       0.145627         3.9627 
  63   0.0000       0.157610         4.2888 
  64   0.0000       0.171005         4.6533 
  65   0.0000       0.197331         5.3696 
  66   0.0000       0.205819         5.6006 
  67   0.0000       0.208982         5.6867 
  68   0.0000       0.209837         5.7100 
  69   0.0000       0.230153         6.2628 
  70   0.0000       0.245596         6.6830 
  71   0.0000       0.250518         6.8169 
  72   0.0000       0.361174         9.8280 
  73   0.0000       0.383955        10.4479 
  74   0.0000       0.387498        10.5444 
  75   0.0000       0.421823        11.4784 
  76   0.0000       0.430288        11.7087 
  77   0.0000       0.442848        12.0505 
  78   0.0000       0.449527        12.2322 
  79   0.0000       0.500638        13.6230 
  80   0.0000       0.500787        13.6271 
  81   0.0000       0.533956        14.5297 
  82   0.0000       0.560745        15.2586 
  83   0.0000       0.575891        15.6708 
  84   0.0000       0.596678        16.2364 
  85   0.0000       0.599246        16.3063 
  86   0.0000       0.608995        16.5716 
  87   0.0000       0.616018        16.7627 
  88   0.0000       0.625030        17.0079 
  89   0.0000       0.634476        17.2650 
  90   0.0000       0.637966        17.3599 
  91   0.0000       0.638095        17.3635 
  92   0.0000       0.641024        17.4431 
  93   0.0000       0.653515        17.7830 
  94   0.0000       0.654876        17.8201 
  95   0.0000       0.664117        18.0716 
  96   0.0000       0.670611        18.2483 
  97   0.0000       0.680494        18.5172 
  98   0.0000       0.683068        18.5872 
  99   0.0000       0.704833        19.1795 
 100   0.0000       0.705900        19.2085 
 101   0.0000       0.714248        19.4357 
 102   0.0000       0.722303        19.6549 
 103   0.0000       0.729857        19.8604 
 104   0.0000       0.731571        19.9070 
 105   0.0000       0.749900        20.4058 
 106   0.0000       0.753954        20.5161 
 107   0.0000       0.758601        20.6426 
 108   0.0000       0.761563        20.7232 
 109   0.0000       0.773692        21.0532 
 110   0.0000       0.794049        21.6072 
 111   0.0000       0.797094        21.6900 
 112   0.0000       0.837915        22.8008 
 113   0.0000       0.882268        24.0077 
 114   0.0000       0.943763        25.6811 
 115   0.0000       0.953713        25.9518 
 116   0.0000       1.005110        27.3504 
 117   0.0000       1.048468        28.5303 
 118   0.0000       1.133551        30.8455 
 119   0.0000       1.149014        31.2662 
 120   0.0000       1.169655        31.8279 
 121   0.0000       1.195352        32.5272 
 122   0.0000       1.212169        32.9848 
 123   0.0000       1.280101        34.8333 
 124   0.0000       1.298940        35.3460 
 125   0.0000       1.381749        37.5993 
 126   0.0000       1.551280        42.2125 
 127   0.0000       1.562479        42.5172 
 128   0.0000       1.572734        42.7963 
 129   0.0000       1.576545        42.9000 
 130   0.0000       1.591237        43.2997 
 131   0.0000       1.621542        44.1244 
 132   0.0000       1.636951        44.5437 
 133   0.0000       1.707446        46.4620 
 134   0.0000       1.749443        47.6048 
 135   0.0000       1.759929        47.8901 
 136   0.0000       1.774858        48.2963 
 137   0.0000       1.797134        48.9025 
 138   0.0000       1.845207        50.2106 
 139   0.0000       1.856784        50.5257 
 140   0.0000       1.856924        50.5295 
 141   0.0000       1.864289        50.7299 
 142   0.0000       1.868759        50.8515 
 143   0.0000       1.870398        50.8961 
 144   0.0000       1.907405        51.9031 
 145   0.0000       1.916181        52.1419 
 146   0.0000       1.953131        53.1474 
 147   0.0000       1.976570        53.7852 
 148   0.0000       1.993035        54.2332 
 149   0.0000       2.006822        54.6084 
 150   0.0000       2.028547        55.1996 
 151   0.0000       2.092437        56.9381 
 152   0.0000       2.134568        58.0846 
 153   0.0000       2.209376        60.1202 
 154   0.0000       2.226370        60.5826 
 155   0.0000       2.231838        60.7314 
 156   0.0000       2.323561        63.2273 
 157   0.0000       2.342710        63.7484 
 158   0.0000       2.409479        65.5652 
 159   0.0000       2.424722        65.9800 
 160   0.0000       2.433976        66.2319 
 161   0.0000       2.453587        66.7655 
 162   0.0000       2.472061        67.2682 
 163   0.0000       2.618899        71.2639 
 164   0.0000       2.636409        71.7403 
 165   0.0000       2.654919        72.2440 
 166   0.0000       2.658417        72.3392 
 167   0.0000       2.682661        72.9989 
 168   0.0000       2.756207        75.0002 
 169   0.0000       2.881532        78.4105 
 170   0.0000       2.895236        78.7834 
 171   0.0000       2.898029        78.8594 
 172   0.0000       2.918735        79.4228 
 173   0.0000       2.934446        79.8503 
 174   0.0000       2.995579        81.5139 
 175   0.0000       3.010882        81.9303 
 176   0.0000       3.027428        82.3805 
 177   0.0000       3.111758        84.6753 
 178   0.0000       3.130134        85.1753 
 179   0.0000       3.500540        95.2545 
 180   0.0000       3.503215        95.3273 
 181   0.0000       3.566226        97.0419 
 182   0.0000       3.566264        97.0430 
 183   0.0000       3.567549        97.0780 
 184   0.0000       3.582334        97.4803 
 185   0.0000       3.586530        97.5944 
 186   0.0000       3.606405        98.1353 
 187   0.0000       3.607423        98.1630 
 188   0.0000       3.863717       105.1371 

                    ********************************
                    * MULLIKEN POPULATION ANALYSIS *
                    ********************************

-----------------------
MULLIKEN ATOMIC CHARGES
-----------------------
   0 C :    0.006946
   1 C :   -0.403304
   2 C :   -0.010070
   3 C :   -0.005102
   4 C :   -0.026108
   5 Br:   -0.182616
   6 H :    0.034208
   7 H :    0.038108
   8 H :    0.042106
   9 H :    0.038628
  10 H :    0.042914
  11 H :    0.046577
  12 H :    0.044006
  13 H :    0.047910
  14 H :    0.044889
  15 H :    0.096887
  16 H :    0.097661
  17 Br:   -0.953639
Sum of atomic charges:   -1.0000000

--------------------------------
MULLIKEN REDUCED ORBITAL CHARGES
--------------------------------
  0 C s       :     3.015299  s :     3.015299
      pz      :     0.973692  p :     2.951201
      px      :     0.997938
      py      :     0.979571
      dz2     :     0.002209  d :     0.026554
      dxz     :     0.008098
      dyz     :     0.006957
      dx2y2   :     0.002023
      dxy     :     0.007266
  1 C s       :     3.276157  s :     3.276157
      pz      :     1.021593  p :     3.073266
      px      :     1.010631
      py      :     1.041043
      dz2     :     0.007689  d :     0.053880
      dxz     :     0.013831
      dyz     :     0.012573
      dx2y2   :     0.008052
      dxy     :     0.011734
  2 C s       :     3.024172  s :     3.024172
      pz      :     0.992163  p :     2.959256
      px      :     1.000187
      py      :     0.966905
      dz2     :     0.001549  d :     0.026642
      dxz     :     0.008038
      dyz     :     0.007369
      dx2y2   :     0.002446
      dxy     :     0.007240
  3 C s       :     3.029311  s :     3.029311
      pz      :     0.995067  p :     2.948779
      px      :     0.970494
      py      :     0.983217
      dz2     :     0.001606  d :     0.027012
      dxz     :     0.008150
      dyz     :     0.007279
      dx2y2   :     0.003039
      dxy     :     0.006939
  4 C s       :     3.126408  s :     3.126408
      pz      :     1.022041  p :     2.864243
      px      :     0.884736
      py      :     0.957466
      dz2     :     0.004521  d :     0.035457
      dxz     :     0.008586
      dyz     :     0.008466
      dx2y2   :     0.004106
      dxy     :     0.009779
  5 Brs       :     7.969136  s :     7.969136
      pz      :     5.903770  p :    17.170657
      px      :     5.553272
      py      :     5.713614
      dz2     :     2.005098  d :    10.042823
      dxz     :     2.008253
      dyz     :     2.005581
      dx2y2   :     2.008684
      dxy     :     2.015208
  6 H s       :     0.942185  s :     0.942185
      pz      :     0.006317  p :     0.023608
      px      :     0.007133
      py      :     0.010157
  7 H s       :     0.938048  s :     0.938048
      pz      :     0.008947  p :     0.023845
      px      :     0.008509
      py      :     0.006389
  8 H s       :     0.933159  s :     0.933159
      pz      :     0.007335  p :     0.024735
      px      :     0.009206
      py      :     0.008194
  9 H s       :     0.937876  s :     0.937876
      pz      :     0.008589  p :     0.023496
      px      :     0.007199
      py      :     0.007708
 10 H s       :     0.933382  s :     0.933382
      pz      :     0.009177  p :     0.023704
      px      :     0.009134
      py      :     0.005393
 11 H s       :     0.928829  s :     0.928829
      pz      :     0.007493  p :     0.024593
      px      :     0.009852
      py      :     0.007249
 12 H s       :     0.932313  s :     0.932313
      pz      :     0.007175  p :     0.023681
      px      :     0.005942
      py      :     0.010565
 13 H s       :     0.928199  s :     0.928199
      pz      :     0.009154  p :     0.023890
      px      :     0.008600
      py      :     0.006136
 14 H s       :     0.931401  s :     0.931401
      pz      :     0.009085  p :     0.023711
      px      :     0.007289
      py      :     0.007337
 15 H s       :     0.880460  s :     0.880460
      pz      :     0.006306  p :     0.022654
      px      :     0.005816
      py      :     0.010531
 16 H s       :     0.879628  s :     0.879628
      pz      :     0.008850  p :     0.022711
      px      :     0.006426
      py      :     0.007436
 17 Brs       :     7.998991  s :     7.998991
      pz      :     5.977491  p :    17.954421
      px      :     5.990490
      py      :     5.986439
      dz2     :     2.000101  d :    10.000227
      dxz     :     2.000051
      dyz     :     2.000051
      dx2y2   :     2.000015
      dxy     :     2.000010


                     *******************************
                     * LOEWDIN POPULATION ANALYSIS *
                     *******************************

----------------------
LOEWDIN ATOMIC CHARGES
----------------------
   0 C :   -0.061197
   1 C :   -0.088681
   2 C :   -0.063950
   3 C :   -0.052234
   4 C :   -0.069704
   5 Br:   -0.018256
   6 H :    0.025953
   7 H :    0.029340
   8 H :    0.018859
   9 H :    0.026976
  10 H :    0.030044
  11 H :    0.019833
  12 H :    0.029399
  13 H :    0.033195
  14 H :    0.029620
  15 H :    0.037032
  16 H :    0.036945
  17 Br:   -0.963174

-------------------------------
LOEWDIN REDUCED ORBITAL CHARGES
-------------------------------
  0 C s       :     2.845992  s :     2.845992
      pz      :     1.041957  p :     3.144721
      px      :     1.056254
      py      :     1.046510
      dz2     :     0.005226  d :     0.070484
      dxz     :     0.021891
      dyz     :     0.019175
      dx2y2   :     0.004787
      dxy     :     0.019405
  1 C s       :     2.851188  s :     2.851188
      pz      :     1.035659  p :     3.114895
      px      :     1.034280
      py      :     1.044956
      dz2     :     0.014789  d :     0.122598
      dxz     :     0.033979
      dyz     :     0.030068
      dx2y2   :     0.015562
      dxy     :     0.028200
  2 C s       :     2.846428  s :     2.846428
      pz      :     1.053816  p :     3.147063
      px      :     1.058566
      py      :     1.034682
      dz2     :     0.003705  d :     0.070459
      dxz     :     0.021072
      dyz     :     0.020109
      dx2y2   :     0.006096
      dxy     :     0.019476
  3 C s       :     2.848317  s :     2.848317
      pz      :     1.054337  p :     3.133073
      px      :     1.033950
      py      :     1.044786
      dz2     :     0.003793  d :     0.070844
      dxz     :     0.021740
      dyz     :     0.019163
      dx2y2   :     0.007221
      dxy     :     0.018926
  4 C s       :     2.916745  s :     2.916745
      pz      :     1.061103  p :     3.068223
      px      :     0.979557
      py      :     1.027563
      dz2     :     0.009792  d :     0.084736
      dxz     :     0.022172
      dyz     :     0.020389
      dx2y2   :     0.009043
      dxy     :     0.023340
  5 Brs       :     7.823754  s :     7.823754
      pz      :     5.884058  p :    17.139793
      px      :     5.551085
      py      :     5.704650
      dz2     :     2.007395  d :    10.054709
      dxz     :     2.010085
      dyz     :     2.006780
      dx2y2   :     2.009662
      dxy     :     2.020786
  6 H s       :     0.907786  s :     0.907786
      pz      :     0.017919  p :     0.066261
      px      :     0.019479
      py      :     0.028863
  7 H s       :     0.904354  s :     0.904354
      pz      :     0.025623  p :     0.066306
      px      :     0.023661
      py      :     0.017023
  8 H s       :     0.911197  s :     0.911197
      pz      :     0.021110  p :     0.069944
      px      :     0.026263
      py      :     0.022572
  9 H s       :     0.906764  s :     0.906764
      pz      :     0.023826  p :     0.066260
      px      :     0.019786
      py      :     0.022649
 10 H s       :     0.903503  s :     0.903503
      pz      :     0.025637  p :     0.066453
      px      :     0.025004
      py      :     0.015812
 11 H s       :     0.910299  s :     0.910299
      pz      :     0.020575  p :     0.069868
      px      :     0.027322
      py      :     0.021971
 12 H s       :     0.904019  s :     0.904019
      pz      :     0.019424  p :     0.066582
      px      :     0.017160
      py      :     0.029997
 13 H s       :     0.900255  s :     0.900255
      pz      :     0.025246  p :     0.066549
      px      :     0.024673
      py      :     0.016631
 14 H s       :     0.903892  s :     0.903892
      pz      :     0.025153  p :     0.066488
      px      :     0.020878
      py      :     0.020456
 15 H s       :     0.891713  s :     0.891713
      pz      :     0.020935  p :     0.071255
      px      :     0.017936
      py      :     0.032384
 16 H s       :     0.891715  s :     0.891715
      pz      :     0.028783  p :     0.071340
      px      :     0.021055
      py      :     0.021502
 17 Brs       :     7.999019  s :     7.999019
      pz      :     5.981705  p :    17.963921
      px      :     5.992439
      py      :     5.989778
      dz2     :     2.000103  d :    10.000234
      dxz     :     2.000053
      dyz     :     2.000053
      dx2y2   :     2.000015
      dxy     :     2.000009


                      *****************************
                      * MAYER POPULATION ANALYSIS *
                      *****************************

  NA   - Mulliken gross atomic population
  ZA   - Total nuclear charge
  QA   - Mulliken gross atomic charge
  VA   - Mayer's total valence
  BVA  - Mayer's bonded valence
  FA   - Mayer's free valence

  ATOM       NA         ZA         QA         VA         BVA        FA
  0 C      5.9931     6.0000     0.0069     3.8567     3.8567     0.0000
  1 C      6.4033     6.0000    -0.4033     4.1554     4.1554    -0.0000
  2 C      6.0101     6.0000    -0.0101     3.8513     3.8513    -0.0000
  3 C      6.0051     6.0000    -0.0051     3.8943     3.8943    -0.0000
  4 C      6.0261     6.0000    -0.0261     3.8283     3.8283    -0.0000
  5 Br    35.1826    35.0000    -0.1826     1.0553     1.0553    -0.0000
  6 H      0.9658     1.0000     0.0342     0.9910     0.9910     0.0000
  7 H      0.9619     1.0000     0.0381     0.9945     0.9945     0.0000
  8 H      0.9579     1.0000     0.0421     1.0399     1.0399     0.0000
  9 H      0.9614     1.0000     0.0386     0.9909     0.9909     0.0000
 10 H      0.9571     1.0000     0.0429     0.9936     0.9936     0.0000
 11 H      0.9534     1.0000     0.0466     1.0374     1.0374     0.0000
 12 H      0.9560     1.0000     0.0440     0.9905     0.9905    -0.0000
 13 H      0.9521     1.0000     0.0479     0.9924     0.9924    -0.0000
 14 H      0.9551     1.0000     0.0449     0.9915     0.9915    -0.0000
 15 H      0.9031     1.0000     0.0969     0.9769     0.9769    -0.0000
 16 H      0.9023     1.0000     0.0977     0.9767     0.9767    -0.0000
 17 Br    35.9536    35.0000    -0.9536     0.0965     0.0965     0.0000

  Mayer bond orders larger than 0.100000
B(  0-C ,  1-C ) :   1.0264 B(  0-C ,  6-H ) :   0.9648 B(  0-C ,  7-H ) :   0.9676 
B(  0-C ,  8-H ) :   0.9533 B(  1-C ,  2-C ) :   1.0195 B(  1-C ,  3-C ) :   1.0276 
B(  1-C ,  4-C ) :   0.9913 B(  2-C ,  9-H ) :   0.9655 B(  2-C , 10-H ) :   0.9689 
B(  2-C , 11-H ) :   0.9538 B(  3-C , 12-H ) :   0.9646 B(  3-C , 13-H ) :   0.9634 
B(  3-C , 14-H ) :   0.9661 B(  4-C ,  5-Br) :   0.9921 B(  4-C , 15-H ) :   0.9474 
B(  4-C , 16-H ) :   0.9479 


------------------
HIRSHFELD ANALYSIS
------------------

Total integrated alpha density =     56.000668275
Total integrated beta density  =     56.000668275

  ATOM     CHARGE      SPIN    
   0 C   -0.083252    0.000000
   1 C    0.027598    0.000000
   2 C   -0.086394    0.000000
   3 C   -0.071117    0.000000
   4 C    0.008161    0.000000
   5 Br  -0.137609    0.000000
   6 H    0.023580    0.000000
   7 H    0.025658    0.000000
   8 H    0.008116    0.000000
   9 H    0.023013    0.000000
  10 H    0.026217    0.000000
  11 H    0.008260    0.000000
  12 H    0.028258    0.000000
  13 H    0.030197    0.000000
  14 H    0.027518    0.000000
  15 H    0.041993    0.000000
  16 H    0.041874    0.000000
  17 Br  -0.943408    0.000000

  TOTAL  -1.001337    0.000000

-------
TIMINGS
-------

Total SCF time: 0 days 0 hours 0 min 16 sec 

Total time                  ....      16.622 sec
Sum of individual times     ....      16.216 sec  ( 97.6%)

Fock matrix formation       ....      15.049 sec  ( 90.5%)
  Split-RI-J                ....       1.802 sec  ( 12.0% of F)
  Chain of spheres X        ....       9.289 sec  ( 61.7% of F)
  XC integration            ....       0.858 sec  (  5.7% of F)
    Basis function eval.    ....       0.327 sec  ( 38.2% of XC)
    Density eval.           ....       0.170 sec  ( 19.8% of XC)
    XC-Functional eval.     ....       0.062 sec  (  7.2% of XC)
    XC-Potential eval.      ....       0.247 sec  ( 28.7% of XC)
Diagonalization             ....       0.027 sec  (  0.2%)
Density matrix formation    ....       0.006 sec  (  0.0%)
Population analysis         ....       0.068 sec  (  0.4%)
Initial guess               ....       0.176 sec  (  1.1%)
Orbital Transformation      ....       0.000 sec  (  0.0%)
Orbital Orthonormalization  ....       0.000 sec  (  0.0%)
DIIS solution               ....       0.008 sec  (  0.0%)
SOSCF solution              ....       0.013 sec  (  0.1%)
Grid generation             ....       0.869 sec  (  5.2%)


-------------------------------------------------------------------------------
                          DFT DISPERSION CORRECTION                            
                                                                               
                              DFTD3 V3.1  Rev 1                                
                          USING Becke-Johnson damping                          
-------------------------------------------------------------------------------
The PBE0 functional is recognized
Active option DFTDOPT                   ...         4   

molecular C6(AA) [au] = 4423.928957 


            DFT-D V3
 parameters
 s6 scaling factor         :     1.0000 
 a1 scaling factor         :     0.4145 
 s8 scaling factor         :     1.2177 
 a2 scaling factor         :     4.8593 
 ad hoc parameters k1-k3   :    16.0000     1.3333    -4.0000 

 Edisp/kcal,au: -10.152678855446  -0.016179321894 
 E6   /kcal   :  -6.269916549 
 E8   /kcal   :  -3.882762306 
 % E8         :  38.243722290 

-------------------------   ----------------
Dispersion correction           -0.016179322
-------------------------   ----------------


-------------------------   --------------------
FINAL SINGLE POINT ENERGY     -5344.061547313941
-------------------------   --------------------


                            ***************************************
                            *     ORCA property calculations      *
                            ***************************************

                                    ---------------------
                                    Active property flags
                                    ---------------------
   (+) Dipole Moment


------------------------------------------------------------------------------
                       ORCA ELECTRIC PROPERTIES CALCULATION
------------------------------------------------------------------------------

Dipole Moment Calculation                       ... on
Quadrupole Moment Calculation                   ... off
Polarizability Calculation                      ... off
GBWName                                         ... manual_reactants_331_freq.gbw
Electron density file                           ... manual_reactants_331_freq.scfp
The origin for moment calculation is the CENTER OF MASS  = ( 0.341834,  0.416601  1.339484)

-------------
DIPOLE MOMENT
-------------
                                X             Y             Z
Electronic contribution:     29.28027      23.07381      16.16270
Nuclear contribution   :    -31.11638     -25.03200     -21.29439
                        -----------------------------------------
Total Dipole Moment    :     -1.83611      -1.95819      -5.13169
                        -----------------------------------------
Magnitude (a.u.)       :      5.79138
Magnitude (Debye)      :     14.72051



--------------------
Rotational spectrum 
--------------------
 
Rotational constants in cm-1:     0.038975     0.014589     0.011435 
Rotational constants in MHz :  1168.432498   437.367788   342.806249 

 Dipole components along the rotational axes: 
x,y,z [a.u.] :    -5.774320    -0.444045    -0.010395 
x,y,z [Debye]:   -14.677155    -1.128672    -0.026423 

 
[1631286067.512508] [comp0802:208782:0]            sys.c:618  UCX  ERROR shmget(size=2097152 flags=0xfb0) for mm_recv_desc failed: Operation not permitted, please check shared memory limits by 'ipcs -l'
[1631286067.521129] [comp0802:208784:0]            sys.c:618  UCX  ERROR shmget(size=2097152 flags=0xfb0) for mm_recv_desc failed: Operation not permitted, please check shared memory limits by 'ipcs -l'
[1631286067.525670] [comp0802:208783:0]            sys.c:618  UCX  ERROR shmget(size=2097152 flags=0xfb0) for mm_recv_desc failed: Operation not permitted, please check shared memory limits by 'ipcs -l'
[1631286067.526390] [comp0802:208785:0]            sys.c:618  UCX  ERROR shmget(size=2097152 flags=0xfb0) for mm_recv_desc failed: Operation not permitted, please check shared memory limits by 'ipcs -l'
[1631286067.546698] [comp0802:208782:0]            sys.c:618  UCX  ERROR shmget(size=2097152 flags=0xb80) for ucp_am_bufs failed: Operation not permitted, please check shared memory limits by 'ipcs -l'


           ************************************************************
           *        Program running with 4 parallel MPI-processes     *
           *              working on a common directory               *
           ************************************************************
[1631286067.567108] [comp0802:208784:0]            sys.c:618  UCX  ERROR shmget(size=2097152 flags=0xb80) for ucp_am_bufs failed: Operation not permitted, please check shared memory limits by 'ipcs -l'
[1631286067.567280] [comp0802:208783:0]            sys.c:618  UCX  ERROR shmget(size=2097152 flags=0xb80) for ucp_am_bufs failed: Operation not permitted, please check shared memory limits by 'ipcs -l'

-------------------------------------------------------------------------------
                               ORCA SCF HESSIAN
-------------------------------------------------------------------------------

Hessian of the Kohn-Sham DFT energy:
Kohn-Sham wavefunction type                      ... RKS
Hartree-Fock exchange scaling                    ...    0.250
Number of operators                              ...    1
Number of atoms                                  ...   18
Basis set dimensions                             ...  189
Integral neglect threshold                       ... 1.0e-10
Integral primitive cutoff                        ... 1.0e-11

Setting up DFT Hessian calculations              ... 
Electron density on the grid                     ... found on disk
Electron density on the final grid               ... found on disk
Building xc-kernel on the grid                   ... done   (      0.1 sec)
Building xc-kernel on the final grid             ... done   (      0.1 sec)
[1631286067.738403] [comp0802:208785:0]            sys.c:618  UCX  ERROR shmget(size=2097152 flags=0xb80) for ucp_am_bufs failed: Operation not permitted, please check shared memory limits by 'ipcs -l'
                                                     done   (      0.2 sec)

Nuclear repulsion Hessian                        ... done   (      0.0 sec)
[1631286067.833684] [comp0802:208783:0]            sys.c:618  UCX  ERROR shmget(size=6291456 flags=0xfb0) for mm_recv_desc failed: Operation not permitted, please check shared memory limits by 'ipcs -l'

----------------------------------------------
Forming right-hand sides of CP-SCF equations     ...
----------------------------------------------
One electron integral derivatives                ... done   (     13.9 sec)
Transforming the overlap derivative matrices     ... done   (      0.0 sec)
Adding tr(S(x)F(y) C-PCM term to the hessian     ... done   (      2.2 sec)
Making the Q(x) pseudodensities                  ... done   (      0.0 sec)
Adding the E*S(x)*S(y) terms to the Hessian      ... done   (      0.0 sec)
Calculating energy weighted overlap derivatives  ... done   (      0.0 sec)
Two electron integral derivatives (RI)           ... done   (      5.1 sec)
Exchange-correlation integral derivatives        ... done   (     11.4 sec)
tr(F(y)Q(x)) contribution to the Hessian         ... done   (      0.0 sec)
Response fock operator R(S(x)) (RIJCOSX)         ... done   (      8.6 sec)
XC Response fock operator R(S(x))                ... done   (      4.2 sec)
tr(F(y)S(x)) contribution to the Hessian         ... done   (      0.0 sec)
Transforming and finalizing RHSs                 ... done   (      0.0 sec)

----------------------------------------------
Solving the CP-SCF equations (RIJCOSX)           ...
----------------------------------------------
     CP-SCF ITERATION   0: 
     CP-SCF ITERATION   1:      0.000530882656
     CP-SCF ITERATION   2:      0.000058163005
     CP-SCF ITERATION   3:      0.000004244288
     CP-SCF ITERATION   4:      0.000000970825

                                                 ... done   (     32.5 sec)
Forming perturbed density Hessian contributions  ... done   (      0.0 sec)
Calculating [Q*(d^2 A/dXdY)*Q  ] C-PCM term      ... done   (      0.0 sec)
Calculating [d^2(V_N)/(dXdY)*Q ] C-PCM term      ... done   (      0.0 sec)
Calculating [d^2(V_el)/(dXdY)*Q] C-PCM term      ... done   (      1.1 sec)
Calculating C-PCM term that depends on dQ/dX     ... done   (      0.0 sec)
2nd integral derivative contribs (RI)            ... done   (     24.2 sec)
Exchange-correlation Hessian                     ... done   (      9.1 sec)
Dispersion correction in the Hessian             ... done   (      0.9 sec)
Dipol derivatives                                ... done   (      0.4 sec)

Total SCF Hessian time: 0 days 0 hours 1 min 59 sec 

Writing the Hessian file to the disk             ... done


Maximum memory used throughout the entire calculation: 181.2 MB

-----------------------
VIBRATIONAL FREQUENCIES
-----------------------

Scaling factor for frequencies =  1.000000000  (already applied!)

   0:         0.00 cm**-1
   1:         0.00 cm**-1
   2:         0.00 cm**-1
   3:         0.00 cm**-1
   4:         0.00 cm**-1
   5:         0.00 cm**-1
   6:       -28.69 cm**-1 ***imaginary mode***
   7:        14.66 cm**-1
   8:        31.49 cm**-1
   9:        96.36 cm**-1
  10:       173.34 cm**-1
  11:       223.86 cm**-1
  12:       262.23 cm**-1
  13:       274.19 cm**-1
  14:       289.98 cm**-1
  15:       331.43 cm**-1
  16:       384.32 cm**-1
  17:       408.12 cm**-1
  18:       455.89 cm**-1
  19:       665.27 cm**-1
  20:       767.53 cm**-1
  21:       856.71 cm**-1
  22:       928.23 cm**-1
  23:       948.89 cm**-1
  24:       951.00 cm**-1
  25:       953.99 cm**-1
  26:      1032.97 cm**-1
  27:      1034.00 cm**-1
  28:      1132.43 cm**-1
  29:      1204.73 cm**-1
  30:      1273.93 cm**-1
  31:      1285.72 cm**-1
  32:      1297.05 cm**-1
  33:      1369.88 cm**-1
  34:      1378.54 cm**-1
  35:      1393.30 cm**-1
  36:      1425.33 cm**-1
  37:      1435.64 cm**-1
  38:      1441.67 cm**-1
  39:      1443.00 cm**-1
  40:      1461.03 cm**-1
  41:      1462.26 cm**-1
  42:      1476.00 cm**-1
  43:      3040.05 cm**-1
  44:      3040.63 cm**-1
  45:      3044.64 cm**-1
  46:      3108.67 cm**-1
  47:      3137.70 cm**-1
  48:      3138.39 cm**-1
  49:      3139.44 cm**-1
  50:      3144.54 cm**-1
  51:      3147.67 cm**-1
  52:      3149.56 cm**-1
  53:      3190.09 cm**-1


------------
NORMAL MODES
------------

These modes are the Cartesian displacements weighted by the diagonal matrix
M(i,i)=1/sqrt(m[i]) where m[i] is the mass of the displaced atom
Thus, these vectors are normalized but *not* orthogonal

                  0          1          2          3          4          5    
      0       0.000000   0.000000   0.000000   0.000000   0.000000   0.000000
      1       0.000000   0.000000   0.000000   0.000000   0.000000   0.000000
      2       0.000000   0.000000   0.000000   0.000000   0.000000   0.000000
      3       0.000000   0.000000   0.000000   0.000000   0.000000   0.000000
      4       0.000000   0.000000   0.000000   0.000000   0.000000   0.000000
      5       0.000000   0.000000   0.000000   0.000000   0.000000   0.000000
      6       0.000000   0.000000   0.000000   0.000000   0.000000   0.000000
      7       0.000000   0.000000   0.000000   0.000000   0.000000   0.000000
      8       0.000000   0.000000   0.000000   0.000000   0.000000   0.000000
      9       0.000000   0.000000   0.000000   0.000000   0.000000   0.000000
     10       0.000000   0.000000   0.000000   0.000000   0.000000   0.000000
     11       0.000000   0.000000   0.000000   0.000000   0.000000   0.000000
     12       0.000000   0.000000   0.000000   0.000000   0.000000   0.000000
     13       0.000000   0.000000   0.000000   0.000000   0.000000   0.000000
     14       0.000000   0.000000   0.000000   0.000000   0.000000   0.000000
     15       0.000000   0.000000   0.000000   0.000000   0.000000   0.000000
     16       0.000000   0.000000   0.000000   0.000000   0.000000   0.000000
     17       0.000000   0.000000   0.000000   0.000000   0.000000   0.000000
     18       0.000000   0.000000   0.000000   0.000000   0.000000   0.000000
     19       0.000000   0.000000   0.000000   0.000000   0.000000   0.000000
     20       0.000000   0.000000   0.000000   0.000000   0.000000   0.000000
     21       0.000000   0.000000   0.000000   0.000000   0.000000   0.000000
     22       0.000000   0.000000   0.000000   0.000000   0.000000   0.000000
     23       0.000000   0.000000   0.000000   0.000000   0.000000   0.000000
     24       0.000000   0.000000   0.000000   0.000000   0.000000   0.000000
     25       0.000000   0.000000   0.000000   0.000000   0.000000   0.000000
     26       0.000000   0.000000   0.000000   0.000000   0.000000   0.000000
     27       0.000000   0.000000   0.000000   0.000000   0.000000   0.000000
     28       0.000000   0.000000   0.000000   0.000000   0.000000   0.000000
     29       0.000000   0.000000   0.000000   0.000000   0.000000   0.000000
     30       0.000000   0.000000   0.000000   0.000000   0.000000   0.000000
     31       0.000000   0.000000   0.000000   0.000000   0.000000   0.000000
     32       0.000000   0.000000   0.000000   0.000000   0.000000   0.000000
     33       0.000000   0.000000   0.000000   0.000000   0.000000   0.000000
     34       0.000000   0.000000   0.000000   0.000000   0.000000   0.000000
     35       0.000000   0.000000   0.000000   0.000000   0.000000   0.000000
     36       0.000000   0.000000   0.000000   0.000000   0.000000   0.000000
     37       0.000000   0.000000   0.000000   0.000000   0.000000   0.000000
     38       0.000000   0.000000   0.000000   0.000000   0.000000   0.000000
     39       0.000000   0.000000   0.000000   0.000000   0.000000   0.000000
     40       0.000000   0.000000   0.000000   0.000000   0.000000   0.000000
     41       0.000000   0.000000   0.000000   0.000000   0.000000   0.000000
     42       0.000000   0.000000   0.000000   0.000000   0.000000   0.000000
     43       0.000000   0.000000   0.000000   0.000000   0.000000   0.000000
     44       0.000000   0.000000   0.000000   0.000000   0.000000   0.000000
     45       0.000000   0.000000   0.000000   0.000000   0.000000   0.000000
     46       0.000000   0.000000   0.000000   0.000000   0.000000   0.000000
     47       0.000000   0.000000   0.000000   0.000000   0.000000   0.000000
     48       0.000000   0.000000   0.000000   0.000000   0.000000   0.000000
     49       0.000000   0.000000   0.000000   0.000000   0.000000   0.000000
     50       0.000000   0.000000   0.000000   0.000000   0.000000   0.000000
     51       0.000000   0.000000   0.000000   0.000000   0.000000   0.000000
     52       0.000000   0.000000   0.000000   0.000000   0.000000   0.000000
     53       0.000000   0.000000   0.000000   0.000000   0.000000   0.000000
                  6          7          8          9         10         11    
      0       0.070728  -0.146226  -0.088695  -0.089700  -0.197433   0.017478
      1      -0.157048  -0.133018  -0.096343  -0.136528  -0.108205   0.038239
      2      -0.157874  -0.104831  -0.202882   0.034471   0.130465   0.002108
      3       0.013668  -0.066144  -0.058810   0.036722  -0.073577  -0.006217
      4      -0.014087  -0.063083  -0.068307  -0.051937  -0.036679   0.009867
      5       0.006578  -0.106588  -0.202042   0.009715   0.098450  -0.000351
      6       0.112983  -0.136328  -0.084225   0.156268  -0.190422  -0.039176
      7      -0.074957  -0.124165  -0.091500   0.031488  -0.129480  -0.004340
      8       0.200778  -0.073209  -0.188155  -0.013412   0.136301  -0.004129
      9      -0.072912   0.001842  -0.035055  -0.050085   0.022541   0.017876
     10       0.102030  -0.017189  -0.049870   0.073207  -0.004375  -0.022311
     11      -0.004330  -0.266113  -0.261458  -0.012196  -0.105295   0.002207
     12      -0.064303   0.027575  -0.025547   0.125920  -0.017278  -0.017103
     13       0.086301   0.031526  -0.033247  -0.172010   0.019372   0.023231
     14      -0.012926   0.011824  -0.159152   0.029027   0.153898  -0.002763
     15       0.020911  -0.036730  -0.049805  -0.031830   0.083937   0.004482
     16      -0.026494  -0.001744  -0.046484   0.045949   0.048627  -0.007366
     17      -0.001836   0.232543  -0.075269  -0.008419  -0.071234   0.000342
     18      -0.007852  -0.097235  -0.074345  -0.279928  -0.143073  -0.216832
     19      -0.122778  -0.091867  -0.082638  -0.277226  -0.083420  -0.137010
     20      -0.297401  -0.121149  -0.209921   0.066899   0.147505   0.044491
     21       0.121024  -0.205176  -0.109408  -0.140858  -0.293784   0.070189
     22      -0.209626  -0.192758  -0.115547   0.055318  -0.146529   0.284545
     23      -0.141616  -0.196268  -0.234363   0.099271   0.016800   0.197664
     24       0.147483  -0.194344  -0.098166   0.057223  -0.258886   0.217172
     25      -0.248910  -0.167394  -0.116254  -0.245077  -0.144520  -0.000633
[...]
     18      -0.308635   0.135198   0.179819   0.187278   0.005191  -0.052660
     19      -0.119318  -0.211029  -0.280405  -0.292112  -0.008133   0.086736
     20      -0.162123  -0.133880  -0.176552  -0.181939  -0.003596   0.051884
     21       0.202562  -0.172133  -0.229531  -0.239211  -0.003474  -0.096392
     22      -0.032014  -0.101990  -0.135944  -0.143039  -0.003244  -0.058917
     23       0.162439   0.175215   0.233484   0.244943   0.004363   0.099577
     24      -0.304018   0.163741   0.217500   0.231175   0.010843  -0.017331
     25       0.189415   0.137232   0.183844   0.192507   0.008957  -0.015273
     26       0.221786   0.120603   0.159571   0.170661   0.007676  -0.016024
     27      -0.189483   0.260912  -0.021387  -0.166101  -0.006604  -0.318964
     28      -0.274993  -0.309142   0.025468   0.197036   0.007799   0.368252
     29      -0.124587   0.356593  -0.028683  -0.224225  -0.007208  -0.417246
     30       0.006292   0.304673  -0.025576  -0.194601  -0.003404   0.403575
     31       0.224086   0.168853  -0.014281  -0.106478  -0.000765   0.209772
     32       0.111100  -0.311692   0.026098   0.198891   0.002937  -0.398359
     33       0.053973  -0.301328   0.025689   0.193233   0.009810  -0.102019
     34      -0.284865  -0.244059   0.019513   0.158752   0.007986  -0.092049
     35       0.276884  -0.212791   0.017158   0.138052   0.006686  -0.061108
     36       0.100988   0.071092  -0.195673   0.133843   0.001394   0.070326
     37      -0.129851  -0.124048   0.345238  -0.240005  -0.005010  -0.124247
     38       0.277204  -0.077356   0.215170  -0.149965  -0.003011  -0.084877
     39      -0.110189  -0.098356   0.271915  -0.189885  -0.013046  -0.112766
     40      -0.097441  -0.055895   0.155082  -0.108508  -0.007747  -0.058079
     41      -0.169600   0.108657  -0.300482   0.207909   0.012294   0.117198
     42      -0.128027  -0.088652   0.243657  -0.170720  -0.005340   0.162322
     43       0.180382   0.095698  -0.264247   0.181832   0.003871  -0.170452
     44       0.237033  -0.112899   0.311463  -0.217101  -0.005968   0.205676
     45      -0.003607   0.001352   0.001296  -0.009784   0.331827  -0.003264
     46       0.015645  -0.002809  -0.001913   0.018683  -0.544256   0.004890
     47      -0.009229  -0.000937  -0.001450   0.008692  -0.319007   0.002449
     48       0.015673   0.000701  -0.000142   0.013305  -0.351596   0.000429
     49      -0.009275  -0.000899   0.000386  -0.012761   0.395272  -0.000211
     50      -0.005655   0.001220  -0.000953   0.013409  -0.454024  -0.001290
     51       0.000090  -0.000004  -0.000007  -0.000002  -0.000001   0.000008
     52       0.000079   0.000010   0.000003   0.000004   0.000001   0.000002
     53       0.000092  -0.000001   0.000002   0.000013   0.000005   0.000004
                 48         49         50         51         52         53    
      0       0.064696   0.003917  -0.012751  -0.041098   0.021173   0.000175
      1      -0.013815  -0.004845  -0.000124  -0.067187   0.031348  -0.000064
      2      -0.060872  -0.008120   0.009199  -0.030990   0.012558   0.000689
      3       0.000806   0.000797  -0.001090  -0.000123   0.001253  -0.000969
      4      -0.000161  -0.001525   0.000035  -0.000561   0.000990   0.001326
      5      -0.001185   0.000945   0.001546  -0.000413   0.000430  -0.000183
      6      -0.003573   0.004530  -0.001914   0.034819   0.074014   0.000154
      7       0.007361  -0.014615  -0.007015   0.017788   0.036712  -0.000348
      8      -0.016223   0.031593   0.009491   0.008096   0.017128  -0.000531
      9      -0.011064   0.036381  -0.053858  -0.001860  -0.003665  -0.001376
     10       0.002506  -0.071839   0.007391   0.005635   0.001660   0.001952
     11       0.013890   0.030084   0.073323  -0.003633   0.002894  -0.000240
     12      -0.000273  -0.001613   0.000658  -0.000257  -0.000083  -0.056787
     13       0.000141   0.002339  -0.000588   0.000328   0.000082   0.077754
     14       0.000618  -0.000491   0.000430  -0.000356   0.000950  -0.012726
     15      -0.000006   0.000005   0.000006   0.000015   0.000022   0.000057
     16      -0.000007   0.000003   0.000005  -0.000025  -0.000007  -0.000082
     17       0.000001  -0.000002  -0.000003   0.000015  -0.000034   0.000013
     18      -0.297174  -0.041484   0.045299  -0.193837   0.082429   0.001829
     19       0.480094   0.064657  -0.073241   0.289691  -0.124072  -0.003409
     20       0.288523   0.038133  -0.042623   0.181432  -0.077288   0.000266
     21      -0.455956  -0.036059   0.084793   0.175627  -0.097565   0.002429
     22      -0.286813  -0.022175   0.054527   0.100513  -0.057609   0.000873
     23       0.472299   0.034949  -0.090926  -0.191156   0.106473  -0.002623
     24      -0.020195   0.027157   0.024478   0.510448  -0.241898  -0.003166
     25      -0.027684   0.021334   0.020907   0.413708  -0.193892  -0.002365
     26      -0.033446   0.018722   0.019926   0.378262  -0.179842  -0.002321
     27       0.072933  -0.139253  -0.041615  -0.044859  -0.101533   0.002147
     28      -0.086024   0.163186   0.047603   0.060575   0.132995  -0.002087
     29       0.096882  -0.181589  -0.053671  -0.066570  -0.146638  -0.000164
     30      -0.074974   0.152067   0.066237  -0.136491  -0.289827  -0.001804
     31      -0.036964   0.078258   0.032399  -0.073445  -0.155266  -0.001414
     32       0.072082  -0.148652  -0.066893   0.144396   0.306851   0.002614
     33       0.042476  -0.070561   0.002103  -0.235966  -0.496440   0.002545
     34       0.037373  -0.061675   0.001496  -0.196886  -0.420155   0.002340
     35       0.027938  -0.047017   0.002800  -0.172157  -0.364567   0.001895
     36       0.050999  -0.222589   0.242530   0.013329   0.016802   0.007038
     37      -0.092895   0.402654  -0.453247  -0.022773  -0.032412  -0.016053
     38      -0.055764   0.263193  -0.274354  -0.014661  -0.020196  -0.010116
     39       0.090037   0.154616   0.485026  -0.019835   0.018781   0.000448
     40       0.053075   0.073447   0.284008  -0.011014   0.010707  -0.000991
     41      -0.099259  -0.154434  -0.518601   0.021182  -0.022072   0.000349
     42      -0.010992  -0.368205  -0.083715   0.031096   0.002161   0.011280
     43       0.009894   0.383071   0.080579  -0.032138  -0.003432  -0.009352
     44      -0.007958  -0.469988  -0.085534   0.039143   0.003560   0.013212
     45       0.002166   0.008051   0.001414  -0.000691   0.003196   0.319848
     46      -0.004337  -0.014953   0.000412   0.000405  -0.004522  -0.525704
     47      -0.000576  -0.008200  -0.001176   0.001059  -0.003178  -0.323440
     48      -0.001532   0.011176  -0.005737   0.002195  -0.003264   0.353461
     49       0.002119  -0.010120   0.007572  -0.002520   0.004127  -0.395845
     50      -0.000841   0.011293  -0.008912   0.003149  -0.005100   0.474093
     51      -0.000001   0.000004   0.000004  -0.000009   0.000012   0.000001
     52      -0.000000   0.000003   0.000003   0.000002   0.000007  -0.000002
     53      -0.000001   0.000003   0.000003   0.000000   0.000001  -0.000000


-----------
IR SPECTRUM
-----------

 Mode    freq (cm**-1)   T**2         TX         TY         TZ
-------------------------------------------------------------------
   7:        14.66    1.200226  ( -0.741282  -0.484004   0.645342)
   8:        31.49   12.671726  ( -1.203682  -1.254845  -3.106162)
   9:        96.36    1.384135  (  0.714444  -0.911881   0.205373)
  10:       173.34    0.931429  ( -0.691236  -0.373356   0.560559)
  11:       223.86    0.008905  (  0.033749  -0.024229   0.084727)
  12:       262.23    4.096080  (  1.038738   0.886324   1.493831)
  13:       274.19    0.062623  ( -0.188105   0.161001  -0.036303)
  14:       289.98    0.910382  (  0.758626   0.566066  -0.120152)
  15:       331.43    0.230171  (  0.294460  -0.372755   0.067219)
  16:       384.32    0.059726  (  0.137993   0.118364   0.163321)
  17:       408.12    0.965972  (  0.586773  -0.775958   0.139850)
  18:       455.89    3.152945  ( -1.399676  -1.088444  -0.095622)
  19:       665.27   49.274168  ( -5.586548  -4.174428  -0.799249)
  20:       767.53    8.215382  ( -2.326048  -1.673449   0.066710)
  21:       856.71    2.262303  ( -0.934380   1.166893  -0.166129)
  22:       928.23   23.974359  (  3.887986   2.521298  -1.581448)
  23:       948.89    2.150516  (  0.454457   0.437630  -1.323807)
  24:       951.00    2.309412  (  0.939353  -1.194569   0.005702)
  25:       953.99    0.031354  ( -0.159035   0.077469   0.007808)
  26:      1032.97    1.028882  ( -0.862568   0.215798  -0.488150)
  27:      1034.00    1.866532  (  0.598668   1.050307   0.636382)
  28:      1132.43    1.767516  (  0.703567  -1.121844   0.118217)
  29:      1204.73   35.731182  ( -4.563923  -3.551163  -1.513615)
  30:      1273.93   26.419170  (  3.903723   3.154059   1.109967)
  31:      1285.72   12.327667  ( -1.067942  -0.285903   3.332480)
  32:      1297.05    2.533118  (  0.850699  -1.311677   0.298217)
  33:      1369.88   11.256537  (  1.002328   1.495535   2.831122)
  34:      1378.54   17.614062  ( -2.642561   3.215695  -0.538739)
  35:      1393.30   14.046691  ( -1.866230  -1.142346   3.042848)
  36:      1425.33    6.076314  (  1.595795   0.902817  -1.647627)
  37:      1435.64    0.190438  ( -0.198038   0.379687   0.084002)
  38:      1441.67    0.194361  ( -0.294899  -0.219673  -0.243187)
  39:      1443.00    0.010868  ( -0.091934   0.006437   0.048729)
  40:      1461.03   21.489238  (  2.927762   0.337017   3.578249)
  41:      1462.26   14.887362  (  0.051282  -3.362117  -1.892328)
  42:      1476.00   23.991159  ( -1.891439  -0.655570   4.470330)
  43:      3040.05   48.388740  ( -3.302876   6.109367   0.394183)
  44:      3040.63   25.180294  ( -3.683430   0.500975  -3.370706)
  45:      3044.64   22.987887  (  3.611705   3.151612   0.104001)
  46:      3108.67   17.830510  (  1.248253   1.585883   3.709090)
  47:      3137.70    6.849269  (  0.021652  -1.384804   2.220612)
  48:      3138.39   28.681716  (  3.453127  -0.433777  -4.070561)
  49:      3139.44   50.184145  (  2.747953  -5.770063   3.056023)
  50:      3144.54   44.875149  ( -3.688999   0.430540   5.575040)
  51:      3147.67    2.849764  (  0.265021  -1.616282  -0.408855)
  52:      3149.56   15.003558  (  3.003457   2.225770  -1.014273)
  53:      3190.09    5.500715  ( -1.381879   1.876083  -0.267277)

The first frequency considered to be a vibration is 7
The total number of vibrations considered is 47


--------------------------
THERMOCHEMISTRY AT 298.15K
--------------------------

Temperature         ... 298.15 K
Pressure            ... 1.00 atm
Total Mass          ... 230.94 AMU

Throughout the following assumptions are being made:
  (1) The electronic state is orbitally nondegenerate
  (2) There are no thermally accessible electronically excited states
  (3) Hindered rotations indicated by low frequency modes are not
      treated as such but are treated as vibrations and this may
      cause some error
  (4) All equations used are the standard statistical mechanics
      equations for an ideal gas
  (5) All vibrations are strictly harmonic

freq.      14.66  E(vib)   ...       0.57 
freq.      31.49  E(vib)   ...       0.55 
freq.      96.36  E(vib)   ...       0.47 
freq.     173.34  E(vib)   ...       0.38 
freq.     223.86  E(vib)   ...       0.33 
freq.     262.23  E(vib)   ...       0.29 
freq.     274.19  E(vib)   ...       0.28 
freq.     289.98  E(vib)   ...       0.27 
freq.     331.43  E(vib)   ...       0.24 
freq.     384.32  E(vib)   ...       0.20 
freq.     408.12  E(vib)   ...       0.19 
freq.     455.89  E(vib)   ...       0.16 
freq.     665.27  E(vib)   ...       0.08 
freq.     767.53  E(vib)   ...       0.06 
freq.     856.71  E(vib)   ...       0.04 
freq.     928.23  E(vib)   ...       0.03 
freq.     948.89  E(vib)   ...       0.03 
freq.     951.00  E(vib)   ...       0.03 
freq.     953.99  E(vib)   ...       0.03 
freq.    1032.97  E(vib)   ...       0.02 
freq.    1034.00  E(vib)   ...       0.02 
freq.    1132.43  E(vib)   ...       0.01 
freq.    1204.73  E(vib)   ...       0.01 
freq.    1273.93  E(vib)   ...       0.01 
freq.    1285.72  E(vib)   ...       0.01 
freq.    1297.05  E(vib)   ...       0.01 
freq.    1369.88  E(vib)   ...       0.01 
freq.    1378.54  E(vib)   ...       0.01 
freq.    1393.30  E(vib)   ...       0.00 
freq.    1425.33  E(vib)   ...       0.00 
freq.    1435.64  E(vib)   ...       0.00 
freq.    1441.67  E(vib)   ...       0.00 
freq.    1443.00  E(vib)   ...       0.00 
freq.    1461.03  E(vib)   ...       0.00 
freq.    1462.26  E(vib)   ...       0.00 
freq.    1476.00  E(vib)   ...       0.00 
freq.    3040.05  E(vib)   ...       0.00 
freq.    3040.63  E(vib)   ...       0.00 
freq.    3044.64  E(vib)   ...       0.00 
freq.    3108.67  E(vib)   ...       0.00 
freq.    3137.70  E(vib)   ...       0.00 
freq.    3138.39  E(vib)   ...       0.00 
freq.    3139.44  E(vib)   ...       0.00 
freq.    3144.54  E(vib)   ...       0.00 
freq.    3147.67  E(vib)   ...       0.00 
freq.    3149.56  E(vib)   ...       0.00 
freq.    3190.09  E(vib)   ...       0.00 

------------
INNER ENERGY
------------

The inner energy is: U= E(el) + E(ZPE) + E(vib) + E(rot) + E(trans)
    E(el)   - is the total energy from the electronic structure calculation
              = E(kin-el) + E(nuc-el) + E(el-el) + E(nuc-nuc)
    E(ZPE)  - the the zero temperature vibrational energy from the frequency calculation
    E(vib)  - the the finite temperature correction to E(ZPE) due to population
              of excited vibrational states
    E(rot)  - is the rotational thermal energy
    E(trans)- is the translational thermal energy

Summary of contributions to the inner energy U:
Electronic energy                ...  -5344.06154731 Eh
Zero point energy                ...      0.15000899 Eh      94.13 kcal/mol
Thermal vibrational correction   ...      0.00694533 Eh       4.36 kcal/mol
Thermal rotational correction    ...      0.00141627 Eh       0.89 kcal/mol
Thermal translational correction ...      0.00141627 Eh       0.89 kcal/mol
-----------------------------------------------------------------------
Total thermal energy                  -5343.90176045 Eh


Summary of corrections to the electronic energy:
(perhaps to be used in another calculation)
Total thermal correction                  0.00977787 Eh       6.14 kcal/mol
Non-thermal (ZPE) correction              0.15000899 Eh      94.13 kcal/mol
-----------------------------------------------------------------------
Total correction                          0.15978687 Eh     100.27 kcal/mol


--------
ENTHALPY
--------

The enthalpy is H = U + kB*T
                kB is Boltzmann's constant
Total free energy                 ...  -5343.90176045 Eh 
Thermal Enthalpy correction       ...      0.00094421 Eh       0.59 kcal/mol
-----------------------------------------------------------------------
Total Enthalpy                    ...  -5343.90081624 Eh


Note: Only C1 symmetry has been detected, increase convergence thresholds 
      if your molecule has a higher symmetry. Symmetry factor of 1.0 is   
      used for the rotational entropy correction. 
 

Note: Rotational entropy computed according to Herzberg 
Infrared and Raman Spectra, Chapter V,1, Van Nostrand Reinhold, 1945 
Point Group:  C1, Symmetry Number:   1  
Rotational constants in cm-1:     0.038975     0.014589     0.011435 

Vibrational entropy computed according to the QRRHO of S. Grimme
Chem.Eur.J. 2012 18 9955


-------
ENTROPY
-------

The entropy contributions are T*S = T*(S(el)+S(vib)+S(rot)+S(trans))
     S(el)   - electronic entropy
     S(vib)  - vibrational entropy
     S(rot)  - rotational entropy
     S(trans)- translational entropy
The entropies will be listed as mutliplied by the temperature to get
units of energy

Electronic entropy                ...      0.00000000 Eh      0.00 kcal/mol
Vibrational entropy               ...      0.01269488 Eh      7.97 kcal/mol
Rotational entropy                ...      0.01514919 Eh      9.51 kcal/mol
Translational entropy             ...      0.02005666 Eh     12.59 kcal/mol
-----------------------------------------------------------------------
Final entropy term                ...      0.04790073 Eh     30.06 kcal/mol

In case the symmetry of your molecule has not been determined correctly
or in case you have a reason to use a different symmetry number we print 
out the resulting rotational entropy values for sn=1,12 :
 --------------------------------------------------------
|  sn= 1 | S(rot)=       0.01514919 Eh      9.51 kcal/mol|
|  sn= 2 | S(rot)=       0.01449473 Eh      9.10 kcal/mol|
|  sn= 3 | S(rot)=       0.01411190 Eh      8.86 kcal/mol|
|  sn= 4 | S(rot)=       0.01384027 Eh      8.68 kcal/mol|
|  sn= 5 | S(rot)=       0.01362959 Eh      8.55 kcal/mol|
|  sn= 6 | S(rot)=       0.01345744 Eh      8.44 kcal/mol|
|  sn= 7 | S(rot)=       0.01331190 Eh      8.35 kcal/mol|
|  sn= 8 | S(rot)=       0.01318582 Eh      8.27 kcal/mol|
|  sn= 9 | S(rot)=       0.01307461 Eh      8.20 kcal/mol|
|  sn=10 | S(rot)=       0.01297513 Eh      8.14 kcal/mol|
|  sn=11 | S(rot)=       0.01288514 Eh      8.09 kcal/mol|
|  sn=12 | S(rot)=       0.01280299 Eh      8.03 kcal/mol|
 --------------------------------------------------------


-------------------
GIBBS FREE ENERGY
-------------------

The Gibbs free energy is G = H - T*S

Total enthalpy                    ...  -5343.90081624 Eh 
Total entropy correction          ...     -0.04790073 Eh    -30.06 kcal/mol
-----------------------------------------------------------------------
Final Gibbs free energy         ...  -5343.94871697 Eh

For completeness - the Gibbs free energy minus the electronic energy
G-E(el)                           ...      0.11283035 Eh     70.80 kcal/mol

[1631286188.747679] [comp0802:208899:0]            sys.c:618  UCX  ERROR shmget(size=2097152 flags=0xfb0) for mm_recv_desc failed: Operation not permitted, please check shared memory limits by 'ipcs -l'
[1631286188.748965] [comp0802:208901:0]            sys.c:618  UCX  ERROR shmget(size=2097152 flags=0xfb0) for mm_recv_desc failed: Operation not permitted, please check shared memory limits by 'ipcs -l'
[1631286188.749037] [comp0802:208900:0]            sys.c:618  UCX  ERROR shmget(size=2097152 flags=0xfb0) for mm_recv_desc failed: Operation not permitted, please check shared memory limits by 'ipcs -l'
[1631286188.750247] [comp0802:208902:0]            sys.c:618  UCX  ERROR shmget(size=2097152 flags=0xfb0) for mm_recv_desc failed: Operation not permitted, please check shared memory limits by 'ipcs -l'
[1631286188.778082] [comp0802:208901:0]            sys.c:618  UCX  ERROR shmget(size=2097152 flags=0xb80) for ucp_am_bufs failed: Operation not permitted, please check shared memory limits by 'ipcs -l'
[1631286188.778077] [comp0802:208899:0]            sys.c:618  UCX  ERROR shmget(size=2097152 flags=0xb80) for ucp_am_bufs failed: Operation not permitted, please check shared memory limits by 'ipcs -l'
[1631286188.790534] [comp0802:208902:0]            sys.c:618  UCX  ERROR shmget(size=2097152 flags=0xb80) for ucp_am_bufs failed: Operation not permitted, please check shared memory limits by 'ipcs -l'
[1631286188.790532] [comp0802:208900:0]            sys.c:618  UCX  ERROR shmget(size=2097152 flags=0xb80) for ucp_am_bufs failed: Operation not permitted, please check shared memory limits by 'ipcs -l'

Timings for individual modules:

Sum of individual times         ...      142.246 sec (=   2.371 min)
GTO integral calculation        ...        2.546 sec (=   0.042 min)   1.8 %
SCF iterations                  ...       18.817 sec (=   0.314 min)  13.2 %
Analytical frequency calculation...      120.883 sec (=   2.015 min)  85.0 %
                             ****ORCA TERMINATED NORMALLY****
TOTAL RUN TIME: 0 days 0 hours 2 minutes 23 seconds 758 msec
