
                                 *****************
                                 * O   R   C   A *
                                 *****************

           --- An Ab Initio, DFT and Semiempirical electronic structure package ---

                  #######################################################
                  #                        -***-                        #
                  #          Department of theory and spectroscopy      #
                  #               Directorship: Frank Neese             #
                  #        Max Planck Institute fuer Kohlenforschung    #
                  #                Kaiser Wilhelm Platz 1               #
                  #                 D-45470 Muelheim/Ruhr               #
                  #                      Germany                        #
                  #                                                     #
                  #                  All rights reserved                #
                  #                        -***-                        #
                  #######################################################


                         Program Version 4.2.1 -  RELEASE  -


 With contributions from (in alphabetic order):
   Daniel Aravena         : Magnetic Suceptibility
   Michael Atanasov       : Ab Initio Ligand Field Theory (pilot matlab implementation)
   Alexander A. Auer      : GIAO ZORA, VPT2
   Ute Becker             : Parallelization
   Giovanni Bistoni       : ED, misc. LED, open-shell LED, HFLD
   Martin Brehm           : Molecular dynamics
   Dmytro Bykov           : SCF Hessian
   Vijay G. Chilkuri      : MRCI spin determinant printing, contributions to CSF-ICE
   Dipayan Datta          : RHF DLPNO-CCSD density
   Achintya Kumar Dutta   : EOM-CC, STEOM-CC
   Dmitry Ganyushin       : Spin-Orbit,Spin-Spin,Magnetic field MRCI
   Miquel Garcia          : C-PCM Hessian, Gaussian charge scheme
   Yang Guo               : DLPNO-NEVPT2, CIM, IAO-localization
   Andreas Hansen         : Spin unrestricted coupled pair/coupled cluster methods
   Benjamin Helmich-Paris : CASSCF linear response (MC-RPA)
   Lee Huntington         : MR-EOM, pCC
   Robert Izsak           : Overlap fitted RIJCOSX, COSX-SCS-MP3, EOM
   Christian Kollmar      : KDIIS, OOCD, Brueckner-CCSD(T), CCSD density
   Simone Kossmann        : Meta GGA functionals, TD-DFT gradient, OOMP2, MP2 Hessian
   Martin Krupicka        : AUTO-CI
   Lucas Lang             : DCDCAS
   Dagmar Lenk            : GEPOL surface, SMD
   Dimitrios Liakos       : Extrapolation schemes; Compound Job, initial MDCI parallelization
   Dimitrios Manganas     : Further ROCIS development; embedding schemes
   Dimitrios Pantazis     : SARC Basis sets
   Taras Petrenko         : DFT Hessian,TD-DFT gradient, ASA, ECA, R-Raman, ABS, FL, XAS/XES, NRVS
   Peter Pinski           : DLPNO-MP2, DLPNO-MP2 Gradient
   Christoph Reimann      : Effective Core Potentials
   Marius Retegan         : Local ZFS, SOC
   Christoph Riplinger    : Optimizer, TS searches, QM/MM, DLPNO-CCSD(T), (RO)-DLPNO pert. Triples
   Tobias Risthaus        : Range-separated hybrids, TD-DFT gradient, RPA, STAB
   Michael Roemelt        : Original ROCIS implementation
   Masaaki Saitow         : Open-shell DLPNO-CCSD energy and density
   Barbara Sandhoefer     : DKH picture change effects
   Avijit Sen             : IP-ROCIS
   Kantharuban Sivalingam : CASSCF convergence, NEVPT2, FIC-MRCI
   Bernardo de Souza      : ESD, SOC TD-DFT
   Georgi Stoychev        : AutoAux, RI-MP2 NMR
   Willem Van den Heuvel  : Paramagnetic NMR
   Boris Wezisla          : Elementary symmetry handling
   Frank Wennmohs         : Technical directorship


 We gratefully acknowledge several colleagues who have allowed us to
 interface, adapt or use parts of their codes:
   Stefan Grimme, W. Hujo, H. Kruse,             : VdW corrections, initial TS optimization,
                  C. Bannwarth                     DFT functionals, gCP, sTDA/sTD-DF
   Ed Valeev, F. Pavosevic, A. Kumar             : LibInt (2-el integral package), F12 methods
   Garnet Chan, S. Sharma, J. Yang, R. Olivares  : DMRG
   Ulf Ekstrom                                   : XCFun DFT Library
   Mihaly Kallay                                 : mrcc  (arbitrary order and MRCC methods)
   Andreas Klamt, Michael Diedenhofen            : otool_cosmo (COSMO solvation model)
   Jiri Pittner, Ondrej Demel                    : Mk-CCSD
   Frank Weinhold                                : gennbo (NPA and NBO analysis)
   Christopher J. Cramer and Donald G. Truhlar   : smd solvation model
   Lars Goerigk                                  : TD-DFT with DH, B97 family of functionals
   V. Asgeirsson, H. Jonsson                     : NEB implementation
   FAccTs GmbH                                   : IRC, NEB, NEB-TS, Multilevel, MM, QM/MM, CI optimization
   S Lehtola, MJT Oliveira, MAL Marques          : LibXC Library


 Your calculation uses the libint2 library for the computation of 2-el integrals
 For citations please refer to: http://libint.valeyev.net

 Your ORCA version has been built with support for libXC version: 4.2.3
 For citations please refer to: https://tddft.org/programs/libxc/

 This ORCA versions uses:
   CBLAS   interface :  Fast vector & matrix operations
   LAPACKE interface :  Fast linear algebra routines
   SCALAPACK package :  Parallel linear algebra routines


Your calculation utilizes the atom-pairwise dispersion correction
with the Becke-Johnson damping scheme (D3BJ)
Cite in your paper:
S.Grimme, S.Ehrlich, L.Goerigk, J Comput Chem, (2011), 32, 1456–1465 
S.Grimme, J.Antony, S.Ehrlich and H.Krieg, J.Chem.Phys., 132, (2010), 154104 
   

----- Orbital basis set information -----
Your calculation utilizes the basis: def2-SVP
   F. Weigend and R. Ahlrichs, Phys. Chem. Chem. Phys. 7, 3297 (2005).

----- AuxJ basis set information -----
Your calculation utilizes the auxiliary basis: def2/J
   F. Weigend, Phys. Chem. Chem. Phys. 8, 1057 (2006).

================================================================================
                                        WARNINGS
                       Please study these warnings very carefully!
================================================================================


INFO   : the flag for use of LIBINT has been found!

================================================================================
                                       INPUT FILE
================================================================================
NAME = manual_reactants_328_freq.inp
|  1> ! Freq PBE0 RIJCOSX D3BJ def2-SVP def2/J CPCM(Acetone)
|  2> %geom MaxIter 100 end
|  3> %output 
|  4> xyzfile=True 
|  5> end 
|  6> %scf 
|  7> maxiter 250 
|  8> end
|  9> %output
| 10> Print[P_Hirshfeld] = 1
| 11> end
| 12> % maxcore
| 13> 4000
| 14> %pal nprocs 4
| 15> end
| 16> *xyz -1 1
| 17>   C   -1.72225423972797     -0.43060317531096     -0.59617525498761
| 18>   C   -0.23568444963270     -0.65754339910671     -0.54696512101846
| 19>   Br  0.75801552450217      0.97306815406782     -1.01652721003859
| 20>   H   -2.22892441760429     -1.37269563672509     -0.33055711517932
| 21>   H   -2.03414550915918      0.32689520099230      0.13654446435225
| 22>   H   -2.06131791363200     -0.11974112724272     -1.59531506927116
| 23>   H   0.10744716350727     -1.41171070762745     -1.26527914814838
| 24>   H   0.09434173493088     -0.93117137579165      0.46505641525359
| 25>   Br  -0.88491789318418     -1.67360793325553      3.10510803903768
| 26> *
| 27> 
| 28>                          ****END OF INPUT****
================================================================================

                       ****************************
                       * Single Point Calculation *
                       ****************************

---------------------------------
CARTESIAN COORDINATES (ANGSTROEM)
---------------------------------
  C     -1.722254   -0.430603   -0.596175
  C     -0.235684   -0.657543   -0.546965
  Br     0.758016    0.973068   -1.016527
  H     -2.228924   -1.372696   -0.330557
  H     -2.034146    0.326895    0.136544
  H     -2.061318   -0.119741   -1.595315
  H      0.107447   -1.411711   -1.265279
  H      0.094342   -0.931171    0.465056
  Br    -0.884918   -1.673608    3.105108

----------------------------
CARTESIAN COORDINATES (A.U.)
----------------------------
  NO LB      ZA    FRAG     MASS         X           Y           Z
   0 C     6.0000    0    12.011   -3.254589   -0.813722   -1.126608
   1 C     6.0000    0    12.011   -0.445379   -1.242577   -1.033614
   2 Br   35.0000    0    79.900    1.432442    1.838832   -1.920958
   3 H     1.0000    0     1.008   -4.212057   -2.594019   -0.624662
   4 H     1.0000    0     1.008   -3.843978    0.617742    0.258032
   5 H     1.0000    0     1.008   -3.895326   -0.226278   -3.014709
   6 H     1.0000    0     1.008    0.203046   -2.667747   -2.391031
   7 H     1.0000    0     1.008    0.178280   -1.759659    0.878829
   8 Br   35.0000    0    79.900   -1.672252   -3.162661    5.867804

--------------------------------
INTERNAL COORDINATES (ANGSTROEM)
--------------------------------
 C      0   0   0     0.000000000000     0.00000000     0.00000000
 C      1   0   0     1.504597369161     0.00000000     0.00000000
 Br     2   1   0     1.966423716137   111.49349449     0.00000000
 H      1   2   3     1.102182322122   108.50479463   179.73602913
 H      1   2   3     1.099071490468   111.25551849   297.59970374
 H      1   2   3     1.099945342450   112.14166963    59.79563174
 H      2   1   3     1.096577710310   113.04608101   242.21005703
 H      2   1   3     1.099080134476   111.36721697   118.09564460
 Br     8   2   1     2.912049799945   142.87125635     9.36450464

---------------------------
INTERNAL COORDINATES (A.U.)
---------------------------
 C      0   0   0     0.000000000000     0.00000000     0.00000000
 C      1   0   0     2.843276969532     0.00000000     0.00000000
 Br     2   1   0     3.716002286747   111.49349449     0.00000000
 H      1   2   3     2.082822738460   108.50479463   179.73602913
 H      1   2   3     2.076944118585   111.25551849   297.59970374
 H      1   2   3     2.078595459512   112.14166963    59.79563174
 H      2   1   3     2.072231557049   113.04608101   242.21005703
 H      2   1   3     2.076960453394   111.36721697   118.09564460
 Br     8   2   1     5.502976610236   142.87125635     9.36450464

---------------------
BASIS SET INFORMATION
---------------------
There are 3 groups of distinct atoms

 Group   1 Type C   : 7s4p1d contracted to 3s2p1d pattern {511/31/1}
 Group   2 Type Br  : 14s10p6d contracted to 5s4p3d pattern {63311/5311/411}
 Group   3 Type H   : 4s1p contracted to 2s1p pattern {31/1}

Atom   0C    basis set group =>   1
Atom   1C    basis set group =>   1
Atom   2Br   basis set group =>   2
Atom   3H    basis set group =>   3
Atom   4H    basis set group =>   3
Atom   5H    basis set group =>   3
Atom   6H    basis set group =>   3
Atom   7H    basis set group =>   3
Atom   8Br   basis set group =>   2
---------------------------------
AUXILIARY/J BASIS SET INFORMATION
---------------------------------
There are 3 groups of distinct atoms

 Group   1 Type C   : 12s5p4d2f1g contracted to 6s4p3d1f1g pattern {711111/2111/211/2/1}
 Group   2 Type Br  : 19s5p5d3f1g contracted to 8s4p3d2f1g pattern {121111111/2111/311/21/1}
 Group   3 Type H   : 5s2p1d contracted to 3s1p1d pattern {311/2/1}

Atom   0C    basis set group =>   1
Atom   1C    basis set group =>   1
Atom   2Br   basis set group =>   2
Atom   3H    basis set group =>   3
Atom   4H    basis set group =>   3
Atom   5H    basis set group =>   3
Atom   6H    basis set group =>   3
Atom   7H    basis set group =>   3
Atom   8Br   basis set group =>   2
[1631286079.093986] [comp0801:45508:0]            sys.c:618  UCX  ERROR shmget(size=2097152 flags=0xfb0) for mm_recv_desc failed: Operation not permitted, please check shared memory limits by 'ipcs -l'
[1631286079.099853] [comp0801:45509:0]            sys.c:618  UCX  ERROR shmget(size=2097152 flags=0xfb0) for mm_recv_desc failed: Operation not permitted, please check shared memory limits by 'ipcs -l'
[1631286079.104017] [comp0801:45507:0]            sys.c:618  UCX  ERROR shmget(size=2097152 flags=0xfb0) for mm_recv_desc failed: Operation not permitted, please check shared memory limits by 'ipcs -l'
[1631286079.105354] [comp0801:45506:0]            sys.c:618  UCX  ERROR shmget(size=2097152 flags=0xfb0) for mm_recv_desc failed: Operation not permitted, please check shared memory limits by 'ipcs -l'
[1631286079.120003] [comp0801:45506:0]            sys.c:618  UCX  ERROR shmget(size=2097152 flags=0xb80) for ucp_am_bufs failed: Operation not permitted, please check shared memory limits by 'ipcs -l'
[1631286079.121277] [comp0801:45509:0]            sys.c:618  UCX  ERROR shmget(size=2097152 flags=0xb80) for ucp_am_bufs failed: Operation not permitted, please check shared memory limits by 'ipcs -l'
[1631286079.121267] [comp0801:45508:0]            sys.c:618  UCX  ERROR shmget(size=2097152 flags=0xb80) for ucp_am_bufs failed: Operation not permitted, please check shared memory limits by 'ipcs -l'
[1631286079.121967] [comp0801:45507:0]            sys.c:618  UCX  ERROR shmget(size=2097152 flags=0xb80) for ucp_am_bufs failed: Operation not permitted, please check shared memory limits by 'ipcs -l'


           ************************************************************
           *        Program running with 4 parallel MPI-processes     *
           *              working on a common directory               *
           ************************************************************
------------------------------------------------------------------------------
                           ORCA GTO INTEGRAL CALCULATION
                           -- RI-GTO INTEGRALS CHOSEN --
------------------------------------------------------------------------------

                         BASIS SET STATISTICS AND STARTUP INFO

Gaussian basis set:
 # of primitive gaussian shells          ...  109
 # of primitive gaussian functions       ...  231
 # of contracted shells                  ...   51
 # of contracted basis functions         ...  117
 Highest angular momentum                ...    2
 Maximum contraction depth               ...    6
Auxiliary gaussian basis set:
 # of primitive gaussian shells          ...  154
 # of primitive gaussian functions       ...  398
 # of contracted shells                  ...   91
 # of contracted aux-basis functions     ...  269
 Highest angular momentum                ...    4
 Maximum contraction depth               ...   12
Ratio of auxiliary to basis functions    ...  2.30
Integral package used                  ... LIBINT
 One Electron integrals                  ... done
 Ordering auxiliary basis shells         ... done
 Integral threshhold             Thresh  ...  1.000e-10
 Primitive cut-off               TCut    ...  1.000e-11
 Pre-screening matrix                    ... done
 Shell pair data                         ... 
 Ordering of the shell pairs             ... done (   0.000 sec) 1171 of 1326 pairs
 Determination of significant pairs      ... done (   0.000 sec)
 Creation of shell pair data             ... done (   0.000 sec)
 Storage of shell pair data              ... done (   0.004 sec)
 Shell pair data done in (   0.004 sec)
 Computing two index integrals           ... done
 Cholesky decomposition of the V-matrix  ... done


Timings:
 Total evaluation time                   ...   0.388 sec (  0.006 min)
 One electron matrix time                ...   0.018 sec (  0.000 min) =  4.6%
 Schwartz matrix evaluation time         ...   0.140 sec (  0.002 min) = 36.1%
 Two index repulsion integral time       ...   0.002 sec (  0.000 min) =  0.4%
 Cholesky decomposition of V             ...   0.185 sec (  0.003 min) = 47.7%
 Three index repulsion integral time     ...   0.000 sec (  0.000 min) =  0.0%

[1631286080.517605] [comp0801:45553:0]            sys.c:618  UCX  ERROR shmget(size=2097152 flags=0xfb0) for mm_recv_desc failed: Operation not permitted, please check shared memory limits by 'ipcs -l'
[1631286080.520920] [comp0801:45555:0]            sys.c:618  UCX  ERROR shmget(size=2097152 flags=0xfb0) for mm_recv_desc failed: Operation not permitted, please check shared memory limits by 'ipcs -l'
[1631286080.521161] [comp0801:45551:0]            sys.c:618  UCX  ERROR shmget(size=2097152 flags=0xfb0) for mm_recv_desc failed: Operation not permitted, please check shared memory limits by 'ipcs -l'
[1631286080.522006] [comp0801:45557:0]            sys.c:618  UCX  ERROR shmget(size=2097152 flags=0xfb0) for mm_recv_desc failed: Operation not permitted, please check shared memory limits by 'ipcs -l'
[1631286080.528735] [comp0801:45555:0]            sys.c:618  UCX  ERROR shmget(size=2097152 flags=0xb80) for ucp_am_bufs failed: Operation not permitted, please check shared memory limits by 'ipcs -l'
[1631286080.528737] [comp0801:45551:0]            sys.c:618  UCX  ERROR shmget(size=2097152 flags=0xb80) for ucp_am_bufs failed: Operation not permitted, please check shared memory limits by 'ipcs -l'


           ************************************************************
           *        Program running with 4 parallel MPI-processes     *
           *              working on a common directory               *
           ************************************************************
[1631286080.531804] [comp0801:45553:0]            sys.c:618  UCX  ERROR shmget(size=2097152 flags=0xb80) for ucp_am_bufs failed: Operation not permitted, please check shared memory limits by 'ipcs -l'
[1631286080.532393] [comp0801:45557:0]            sys.c:618  UCX  ERROR shmget(size=2097152 flags=0xb80) for ucp_am_bufs failed: Operation not permitted, please check shared memory limits by 'ipcs -l'
-------------------------------------------------------------------------------
                                 ORCA SCF
-------------------------------------------------------------------------------

------------
SCF SETTINGS
------------
Hamiltonian:
 Density Functional     Method          .... DFT(GTOs)
 Exchange Functional    Exchange        .... PBE
   PBE kappa parameter   XKappa         ....  0.804000
   PBE mue parameter    XMuePBE         ....  0.219520
 Correlation Functional Correlation     .... PBE
   PBE beta parameter  CBetaPBE         ....  0.066725
 LDA part of GGA corr.  LDAOpt          .... PW91-LDA
 Gradients option       PostSCFGGA      .... off
 Hybrid DFT is turned on
   Fraction HF Exchange ScalHFX         ....  0.250000
   Scaling of DF-GGA-X  ScalDFX         ....  0.750000
   Scaling of DF-GGA-C  ScalDFC         ....  1.000000
   Scaling of DF-LDA-C  ScalLDAC        ....  1.000000
   Perturbative correction              ....  0.000000
   Density functional embedding theory  .... OFF
   NL short-range parameter             ....  6.900000
 RI-approximation to the Coulomb term is turned on
   Number of auxiliary basis functions  .... 269
   RIJ-COSX (HFX calculated with COS-X)).... on


General Settings:
 Integral files         IntName         .... manual_reactants_328_freq
 Hartree-Fock type      HFTyp           .... RHF
 Total Charge           Charge          ....   -1
 Multiplicity           Mult            ....    1
 Number of Electrons    NEL             ....   88
 Basis Dimension        Dim             ....  117
 Nuclear Repulsion      ENuc            ....    369.8233530058 Eh

Convergence Acceleration:
 DIIS                   CNVDIIS         .... on
   Start iteration      DIISMaxIt       ....    12
   Startup error        DIISStart       ....  0.200000
   # of expansion vecs  DIISMaxEq       ....     5
   Bias factor          DIISBfac        ....   1.050
   Max. coefficient     DIISMaxC        ....  10.000
 Newton-Raphson         CNVNR           .... off
 SOSCF                  CNVSOSCF        .... on
   Start iteration      SOSCFMaxIt      ....   150
   Startup grad/error   SOSCFStart      ....  0.003300
 Level Shifting         CNVShift        .... on
   Level shift para.    LevelShift      ....    0.2500
   Turn off err/grad.   ShiftErr        ....    0.0010
 Zerner damping         CNVZerner       .... off
 Static damping         CNVDamp         .... on
   Fraction old density DampFac         ....    0.7000
   Max. Damping (<1)    DampMax         ....    0.9800
   Min. Damping (>=0)   DampMin         ....    0.0000
   Turn off err/grad.   DampErr         ....    0.1000
 Fernandez-Rico         CNVRico         .... off

SCF Procedure:
 Maximum # iterations   MaxIter         ....   250
 SCF integral mode      SCFMode         .... Direct
   Integral package                     .... LIBINT
 Reset frequency        DirectResetFreq ....    20
 Integral Threshold     Thresh          ....  1.000e-10 Eh
 Primitive CutOff       TCut            ....  1.000e-11 Eh

Convergence Tolerance:
 Convergence Check Mode ConvCheckMode   .... Total+1el-Energy
 Convergence forced     ConvForced      .... 0
 Energy Change          TolE            ....  1.000e-06 Eh
 1-El. energy change                    ....  1.000e-03 Eh
 Orbital Gradient       TolG            ....  5.000e-05
 Orbital Rotation angle TolX            ....  5.000e-05
 DIIS Error             TolErr          ....  1.000e-06


Diagonalization of the overlap matrix:
Smallest eigenvalue                        ... 3.721e-03
Time for diagonalization                   ...    0.003 sec
Threshold for overlap eigenvalues          ... 1.000e-08
Number of eigenvalues below threshold      ... 0
Time for construction of square roots      ...    0.001 sec
Total time needed                          ...    0.005 sec

-------------------
DFT GRID GENERATION
-------------------

General Integration Accuracy     IntAcc      ...  4.340
Radial Grid Type                 RadialGrid  ... Gauss-Chebyshev
Angular Grid (max. acc.)         AngularGrid ... Lebedev-110
Angular grid pruning method      GridPruning ... 3 (G Style)
Weight generation scheme         WeightScheme... Becke
Basis function cutoff            BFCut       ...    1.0000e-10
Integration weight cutoff        WCut        ...    1.0000e-14
Grids for H and He will be reduced by one unit

# of grid points (after initial pruning)     ...  13062 (   0.0 sec)
# of grid points (after weights+screening)   ...  12643 (   0.0 sec)
nearest neighbour list constructed           ...    0.0 sec
Grid point re-assignment to atoms done       ...    0.0 sec
Grid point division into batches done        ...    0.0 sec
Reduced shell lists constructed in    0.0 sec

Total number of grid points                  ...    12643
Total number of batches                      ...      202
Average number of points per batch           ...       62
Average number of grid points per atom       ...     1405
Average number of shells per batch           ...    34.08 (66.82%)
Average number of basis functions per batch  ...    74.88 (64.00%)
Average number of large shells per batch     ...    28.44 (83.47%)
Average number of large basis fcns per batch ...    61.40 (82.00%)
Maximum spatial batch extension              ...  19.21, 15.67, 17.34 au
Average spatial batch extension              ...   0.99,  0.84,  0.86 au

Time for grid setup =    0.067 sec

------------------------------
INITIAL GUESS: MODEL POTENTIAL
------------------------------
Loading Hartree-Fock densities                     ... done
Calculating cut-offs                               ... done
Setting up the integral package                    ... done
Initializing the effective Hamiltonian             ... done
Starting the Coulomb interaction                   ... done (   0.0 sec)
Reading the grid                                   ... done
Mapping shells                                     ... done
Starting the XC term evaluation                    ... done (   0.0 sec)
  promolecular density results
     # of electrons  =     86.991717814
     EX              =   -190.203092299
     EC              =     -3.957270628
     EX+EC           =   -194.160362927
Transforming the Hamiltonian                       ... done (   0.0 sec)
Diagonalizing the Hamiltonian                      ... done (   0.0 sec)
Back transforming the eigenvectors                 ... done (   0.0 sec)
Now organizing SCF variables                       ... done
                      ------------------
                      INITIAL GUESS DONE (   0.2 sec)
                      ------------------
--------------------
COSX GRID GENERATION
--------------------

General Integration Accuracy     IntAcc      ...  3.340
Radial Grid Type                 RadialGrid  ... Gauss-Chebyshev
Angular Grid (max. acc.)         AngularGrid ... Lebedev-50
Angular grid pruning method      GridPruning ... 3 (G Style)
Weight generation scheme         WeightScheme... Becke
Basis function cutoff            BFCut       ...    1.0000e-10
Integration weight cutoff        WCut        ...    1.0000e-14
Grids for H and He will be reduced by one unit

# of grid points (after initial pruning)     ...   4844 (   0.0 sec)
# of grid points (after weights+screening)   ...   4700 (   0.0 sec)
nearest neighbour list constructed           ...    0.0 sec
Grid point re-assignment to atoms done       ...    0.0 sec
Grid point division into batches done        ...    0.0 sec
Reduced shell lists constructed in    0.0 sec

Total number of grid points                  ...     4700
Total number of batches                      ...       78
Average number of points per batch           ...       60
Average number of grid points per atom       ...      522
Average number of shells per batch           ...    35.71 (70.03%)
Average number of basis functions per batch  ...    79.24 (67.72%)
Average number of large shells per batch     ...    30.24 (84.67%)
Average number of large basis fcns per batch ...    65.76 (82.99%)
Maximum spatial batch extension              ...  16.31, 14.82, 21.12 au
Average spatial batch extension              ...   1.26,  1.12,  1.16 au

Overlap Fitting                  UseSFitting ... on
Constructing numerical overlap ... done (      0.0 sec)
Inverting numerical overlap    ... done (      0.0 sec)
Obtaining analytic overlap     ... done (      0.0 sec)
Final contraction and storage  ... done (      0.0 sec)


General Integration Accuracy     IntAcc      ...  3.670
Radial Grid Type                 RadialGrid  ... Gauss-Chebyshev
Angular Grid (max. acc.)         AngularGrid ... Lebedev-50
Angular grid pruning method      GridPruning ... 3 (G Style)
Weight generation scheme         WeightScheme... Becke
Basis function cutoff            BFCut       ...    1.0000e-10
Integration weight cutoff        WCut        ...    1.0000e-14
Grids for H and He will be reduced by one unit

# of grid points (after initial pruning)     ...   6004 (   0.0 sec)
# of grid points (after weights+screening)   ...   5812 (   0.0 sec)
nearest neighbour list constructed           ...    0.0 sec
Grid point re-assignment to atoms done       ...    0.0 sec
Grid point division into batches done        ...    0.0 sec
Reduced shell lists constructed in    0.0 sec

Total number of grid points                  ...     5812
Total number of batches                      ...       96
Average number of points per batch           ...       60
Average number of grid points per atom       ...      646
Average number of shells per batch           ...    35.40 (69.41%)
Average number of basis functions per batch  ...    78.28 (66.91%)
Average number of large shells per batch     ...    29.88 (84.41%)
Average number of large basis fcns per batch ...    64.28 (82.12%)
Maximum spatial batch extension              ...  16.82, 15.13, 22.48 au
Average spatial batch extension              ...   1.21,  1.10,  1.11 au

Overlap Fitting                  UseSFitting ... on
Constructing numerical overlap ... done (      0.0 sec)
Inverting numerical overlap    ... done (      0.0 sec)
Obtaining analytic overlap     ... done (      0.0 sec)
Final contraction and storage  ... done (      0.0 sec)


General Integration Accuracy     IntAcc      ...  4.010
Radial Grid Type                 RadialGrid  ... Gauss-Chebyshev
Angular Grid (max. acc.)         AngularGrid ... Lebedev-110
Angular grid pruning method      GridPruning ... 3 (G Style)
Weight generation scheme         WeightScheme... Becke
Basis function cutoff            BFCut       ...    1.0000e-10
Integration weight cutoff        WCut        ...    1.0000e-14
Grids for H and He will be reduced by one unit

# of grid points (after initial pruning)     ...  11440 (   0.0 sec)
# of grid points (after weights+screening)   ...  11083 (   0.0 sec)
nearest neighbour list constructed           ...    0.0 sec
Grid point re-assignment to atoms done       ...    0.0 sec
Grid point division into batches done        ...    0.0 sec
Reduced shell lists constructed in    0.0 sec

Total number of grid points                  ...    11083
Total number of batches                      ...      178
Average number of points per batch           ...       62
Average number of grid points per atom       ...     1231
Average number of shells per batch           ...    34.28 (67.22%)
Average number of basis functions per batch  ...    75.67 (64.68%)
Average number of large shells per batch     ...    28.78 (83.96%)
Average number of large basis fcns per batch ...    61.83 (81.70%)
Maximum spatial batch extension              ...  17.78, 14.76, 16.54 au
Average spatial batch extension              ...   0.99,  0.92,  0.89 au

Overlap Fitting                  UseSFitting ... on
Constructing numerical overlap ... done (      0.0 sec)
Inverting numerical overlap    ... done (      0.0 sec)
Obtaining analytic overlap     ... done (      0.0 sec)
Final contraction and storage  ... done (      0.0 sec)

Time for X-Grid setup             =    0.135 sec

--------------------
CPCM SOLVATION MODEL
--------------------
CPCM parameters:
  Epsilon                                         ...      20.7000
  Refrac                                          ...       1.3590
  Rsolv                                           ...       1.3000
  Surface type                                    ...    GEPOL SES
  Epsilon function type                           ...         CPCM
Radii:
 Radius for C  used is    3.7795 Bohr (=   2.0000 Ang.)
 Radius for Br used is    4.0818 Bohr (=   2.1600 Ang.)
 Radius for H  used is    2.4566 Bohr (=   1.3000 Ang.)
Calculating surface                               ...        done! (  0.0s)
GEPOL surface points                              ...          407
GEPOL Volume                                      ...     886.6039
GEPOL Surface-area                                ...     539.5941
Calculating surface distance matrix               ...        done! (  0.0s)
Performing Cholesky decomposition & store         ...        done! (  0.0s)
Overall time for CPCM initialization              ...                 0.0s
--------------
SCF ITERATIONS
--------------
ITER       Energy         Delta-E        Max-DP      RMS-DP      [F,P]     Damp
               ***  Starting incremental Fock matrix formation  ***
  0  -5226.2263234757   0.000000000000 0.11347564  0.00244929  0.1594731 0.7000
  1  -5226.2726546938  -0.046331218091 0.08600881  0.00187304  0.0840772 0.7000
                               ***Turning on DIIS***
  2  -5226.2942554954  -0.021600801566 0.16819870  0.00367775  0.0416534 0.0000
  3  -5226.3267287436  -0.032473248277 0.03961544  0.00105526  0.0456625 0.0000
  4  -5226.3336049635  -0.006876219841 0.01838102  0.00036363  0.0081884 0.0000
                      *** Initiating the SOSCF procedure ***
                           *** Shutting down DIIS ***
                      *** Re-Reading the Fockian *** 
                      *** Removing any level shift *** 
ITER      Energy       Delta-E        Grad      Rot      Max-DP    RMS-DP
  5  -5226.33389583  -0.0002908666  0.000646  0.000646  0.001431  0.000076
               *** Restarting incremental Fock matrix formation ***
  6  -5226.33390483  -0.0000089973  0.000317  0.000585  0.001071  0.000051
  7  -5226.33390534  -0.0000005083  0.000198  0.000156  0.000741  0.000014
  8  -5226.33390658  -0.0000012456  0.000025  0.000018  0.000126  0.000003
  9  -5226.33390641   0.0000001726  0.000023  0.000019  0.000049  0.000001
                 **** Energy Check signals convergence ****
              ***Rediagonalizing the Fockian in SOSCF/NRSCF***

               *****************************************************
               *                     SUCCESS                       *
               *           SCF CONVERGED AFTER  10 CYCLES          *
               *****************************************************

Setting up the final grid:

General Integration Accuracy     IntAcc      ...  4.670
Radial Grid Type                 RadialGrid  ... Gauss-Chebyshev
Angular Grid (max. acc.)         AngularGrid ... Lebedev-302
Angular grid pruning method      GridPruning ... 3 (G Style)
Weight generation scheme         WeightScheme... Becke
Basis function cutoff            BFCut       ...    1.0000e-10
Integration weight cutoff        WCut        ...    1.0000e-14
Grids for H and He will be reduced by one unit

# of grid points (after initial pruning)     ...  48626 (   0.0 sec)
# of grid points (after weights+screening)   ...  46608 (   0.0 sec)
nearest neighbour list constructed           ...    0.0 sec
Grid point re-assignment to atoms done       ...    0.0 sec
Grid point division into batches done        ...    0.2 sec
Reduced shell lists constructed in    0.3 sec
[1631286087.228302] [comp0801:45555:0]            sys.c:618  UCX  ERROR shmget(size=6291456 flags=0xfb0) for mm_recv_desc failed: Operation not permitted, please check shared memory limits by 'ipcs -l'
[1631286087.228381] [comp0801:45557:0]            sys.c:618  UCX  ERROR shmget(size=6291456 flags=0xfb0) for mm_recv_desc failed: Operation not permitted, please check shared memory limits by 'ipcs -l'

Total number of grid points                  ...    46608
Total number of batches                      ...      734
Average number of points per batch           ...       63
Average number of grid points per atom       ...     5179
Average number of shells per batch           ...    32.25 (63.23%)
Average number of basis functions per batch  ...    70.57 (60.32%)
Average number of large shells per batch     ...    26.69 (82.77%)
Average number of large basis fcns per batch ...    57.09 (80.90%)
Maximum spatial batch extension              ...  16.16, 13.85, 16.61 au
Average spatial batch extension              ...   0.59,  0.58,  0.63 au

Final grid set up in    0.4 sec
Final integration                            ... done (   0.1 sec)
Change in XC energy                          ...    -0.000244942
Integrated number of electrons               ...    87.999969648
Previous integrated no of electrons          ...    87.996542346
Old exchange energy                            =    -47.891640059 Eh
New exchange energy                            =    -47.891563492 Eh
Exchange energy change after final integration =      0.000076566 Eh
Total energy after final integration           =  -5226.334074946 Eh
Final COS-X integration done in                =     0.557 sec

----------------
TOTAL SCF ENERGY
----------------

Total Energy       :        -5226.33407495 Eh         -142215.78029 eV

Components:
Nuclear Repulsion  :          369.82335301 Eh           10063.40505 eV
Electronic Energy  :        -5596.15742795 Eh         -152279.18534 eV
One Electron Energy:        -8026.22550422 Eh         -218404.69945 eV
Two Electron Energy:         2430.06807627 Eh           66125.51411 eV
CPCM Dielectric    :           -0.10277124 Eh              -2.79655 eV

Virial components:
Potential Energy   :       -10446.66346565 Eh         -284268.16481 eV
Kinetic Energy     :         5220.32939070 Eh          142052.38452 eV
Virial Ratio       :            2.00115025


DFT components:
N(Alpha)           :       43.999984823900 electrons
N(Beta)            :       43.999984823900 electrons
N(Total)           :       87.999969647799 electrons
E(X)               :     -143.060287395834 Eh       
E(C)               :       -4.007995594626 Eh       
E(XC)              :     -147.068282990459 Eh       
DFET-embed. en.    :        0.000000000000 Eh       
CPCM Solvation Model Properties:
Surface-charge          :            0.97660241
Charge-correction       :           -0.00336166 Eh              -0.09148 eV
Free-energy (cav+disp)  :            0.00373388 Eh               0.10160 eV
Corrected G(solv)       :        -5226.33370273 Eh         -142215.77016 eV

---------------
SCF CONVERGENCE
---------------

  Last Energy change         ...   -1.6124e-07  Tolerance :   1.0000e-06
  Last MAX-Density change    ...    2.9507e-15  Tolerance :   1.0000e-05
  Last RMS-Density change    ...    9.7321e-17  Tolerance :   1.0000e-06
  Last Orbital Gradient      ...    2.6423e-06  Tolerance :   5.0000e-05
  Last Orbital Rotation      ...    4.3385e-06  Tolerance :   5.0000e-05

             **** THE GBW FILE WAS UPDATED (manual_reactants_328_freq.gbw) ****
             **** DENSITY FILE WAS UPDATED (manual_reactants_328_freq.scfp) ****
             **** ENERGY FILE WAS UPDATED (manual_reactants_328_freq.en.tmp) ****
             **** THE GBW FILE WAS UPDATED (manual_reactants_328_freq.gbw) ****
             **** DENSITY FILE WAS UPDATED (manual_reactants_328_freq.scfp) ****
----------------
ORBITAL ENERGIES
----------------

  NO   OCC          E(Eh)            E(eV) 
   0   2.0000    -483.171182    -13147.7563 
   1   2.0000    -483.065193    -13144.8722 
   2   2.0000     -62.607564     -1703.6384 
   3   2.0000     -62.500376     -1700.7217 
   4   2.0000     -56.396733     -1534.6331 
   5   2.0000     -56.394502     -1534.5724 
   6   2.0000     -56.394346     -1534.5682 
   7   2.0000     -56.288363     -1531.6842 
   8   2.0000     -56.288299     -1531.6825 
   9   2.0000     -56.287941     -1531.6728 
  10   2.0000     -10.271973      -279.5146 
  11   2.0000     -10.223457      -278.1944 
  12   2.0000      -8.752887      -238.1782 
  13   2.0000      -8.643852      -235.2112 
  14   2.0000      -6.567025      -178.6978 
  15   2.0000      -6.555116      -178.3738 
  16   2.0000      -6.555071      -178.3725 
  17   2.0000      -6.450318      -175.5221 
  18   2.0000      -6.450090      -175.5159 
  19   2.0000      -6.450064      -175.5152 
  20   2.0000      -2.652532       -72.1791 
  21   2.0000      -2.649385       -72.0934 
  22   2.0000      -2.649257       -72.0900 
  23   2.0000      -2.639596       -71.8271 
  24   2.0000      -2.639587       -71.8268 
  25   2.0000      -2.537119       -69.0385 
  26   2.0000      -2.537104       -69.0381 
  27   2.0000      -2.537060       -69.0369 
  28   2.0000      -2.536909       -69.0328 
  29   2.0000      -2.536901       -69.0326 
  30   2.0000      -0.824012       -22.4225 
  31   2.0000      -0.732225       -19.9249 
  32   2.0000      -0.653191       -17.7742 
  33   2.0000      -0.609339       -16.5810 
  34   2.0000      -0.467009       -12.7080 
  35   2.0000      -0.440040       -11.9741 
  36   2.0000      -0.402896       -10.9634 
  37   2.0000      -0.364721        -9.9246 
  38   2.0000      -0.349285        -9.5045 
  39   2.0000      -0.283174        -7.7055 
  40   2.0000      -0.281352        -7.6560 
  41   2.0000      -0.216508        -5.8915 
  42   2.0000      -0.216441        -5.8897 
  43   2.0000      -0.214255        -5.8302 
  44   0.0000       0.023374         0.6360 
  45   0.0000       0.098171         2.6714 
  46   0.0000       0.132944         3.6176 
  47   0.0000       0.143699         3.9103 
  48   0.0000       0.160825         4.3763 
  49   0.0000       0.177812         4.8385 
  50   0.0000       0.229544         6.2462 
  51   0.0000       0.342158         9.3106 
  52   0.0000       0.381023        10.3682 
  53   0.0000       0.412188        11.2162 
  54   0.0000       0.433404        11.7935 
  55   0.0000       0.464376        12.6363 
  56   0.0000       0.473674        12.8893 
  57   0.0000       0.485648        13.2152 
  58   0.0000       0.560986        15.2652 
  59   0.0000       0.564167        15.3518 
  60   0.0000       0.595952        16.2167 
  61   0.0000       0.609581        16.5876 
  62   0.0000       0.613861        16.7040 
  63   0.0000       0.628548        17.1037 
  64   0.0000       0.632083        17.1999 
  65   0.0000       0.632887        17.2217 
  66   0.0000       0.634066        17.2538 
  67   0.0000       0.639044        17.3893 
  68   0.0000       0.660160        17.9639 
  69   0.0000       0.676040        18.3960 
  70   0.0000       0.693724        18.8772 
  71   0.0000       0.701114        19.0783 
  72   0.0000       0.707664        19.2565 
  73   0.0000       0.719420        19.5764 
  74   0.0000       0.727485        19.7959 
  75   0.0000       0.753322        20.4989 
  76   0.0000       0.788549        21.4575 
  77   0.0000       0.791553        21.5393 
  78   0.0000       0.802371        21.8336 
  79   0.0000       0.898384        24.4463 
  80   0.0000       1.017594        27.6902 
  81   0.0000       1.062384        28.9089 
  82   0.0000       1.190731        32.4014 
  83   0.0000       1.234965        33.6051 
  84   0.0000       1.370324        37.2884 
  85   0.0000       1.550413        42.1889 
  86   0.0000       1.560342        42.4591 
  87   0.0000       1.737253        47.2731 
  88   0.0000       1.774188        48.2781 
  89   0.0000       1.779440        48.4210 
  90   0.0000       1.808791        49.2197 
  91   0.0000       1.840341        50.0782 
  92   0.0000       1.864009        50.7223 
  93   0.0000       1.888905        51.3997 
  94   0.0000       1.970456        53.6188 
  95   0.0000       2.074223        56.4425 
  96   0.0000       2.181781        59.3693 
  97   0.0000       2.268125        61.7188 
  98   0.0000       2.371083        64.5204 
  99   0.0000       2.450643        66.6854 
 100   0.0000       2.513827        68.4047 
 101   0.0000       2.578793        70.1725 
 102   0.0000       2.757840        75.0446 
 103   0.0000       2.867214        78.0209 
 104   0.0000       2.970904        80.8424 
 105   0.0000       2.987704        81.2995 
 106   0.0000       3.027483        82.3820 
 107   0.0000       3.475125        94.5629 
 108   0.0000       3.494087        95.0790 
 109   0.0000       3.560621        96.8894 
 110   0.0000       3.560916        96.8975 
 111   0.0000       3.562354        96.9366 
 112   0.0000       3.566029        97.0366 
 113   0.0000       3.582398        97.4820 
 114   0.0000       3.584447        97.5378 
 115   0.0000       3.600977        97.9876 
 116   0.0000       3.801712       103.4498 

                    ********************************
                    * MULLIKEN POPULATION ANALYSIS *
                    ********************************

-----------------------
MULLIKEN ATOMIC CHARGES
-----------------------
   0 C :   -0.063053
   1 C :   -0.129172
   2 Br:   -0.226791
   3 H :    0.060922
   4 H :    0.055144
   5 H :    0.055069
   6 H :    0.105477
   7 H :    0.083672
   8 Br:   -0.941267
Sum of atomic charges:   -1.0000000

--------------------------------
MULLIKEN REDUCED ORBITAL CHARGES
--------------------------------
  0 C s       :     3.043208  s :     3.043208
      pz      :     1.028158  p :     2.992409
      px      :     0.922788
      py      :     1.041463
      dz2     :     0.005530  d :     0.027436
      dxz     :     0.005098
      dyz     :     0.005207
      dx2y2   :     0.006230
      dxy     :     0.005371
  1 C s       :     3.169403  s :     3.169403
      pz      :     1.087257  p :     2.923375
      px      :     0.969850
      py      :     0.866268
      dz2     :     0.006202  d :     0.036394
      dxz     :     0.006758
      dyz     :     0.006551
      dx2y2   :     0.007556
      dxy     :     0.009327
  2 Brs       :     7.971985  s :     7.971985
      pz      :     5.943216  p :    17.212297
      px      :     5.798685
      py      :     5.470396
      dz2     :     2.005906  d :    10.042509
      dxz     :     2.002770
      dyz     :     2.009228
      dx2y2   :     2.010394
      dxy     :     2.014211
  3 H s       :     0.914765  s :     0.914765
      pz      :     0.005753  p :     0.024313
      px      :     0.006397
      py      :     0.012164
  4 H s       :     0.920979  s :     0.920979
      pz      :     0.009493  p :     0.023877
      px      :     0.004635
      py      :     0.009749
  5 H s       :     0.921230  s :     0.921230
      pz      :     0.013155  p :     0.023701
      px      :     0.004783
      py      :     0.005763
  6 H s       :     0.871585  s :     0.871585
      pz      :     0.009410  p :     0.022938
      px      :     0.004638
      py      :     0.008891
  7 H s       :     0.892090  s :     0.892090
      pz      :     0.015866  p :     0.024238
      px      :     0.004236
      py      :     0.004136
  8 Brs       :     7.997795  s :     7.997795
      pz      :     5.960578  p :    17.943148
      px      :     5.988288
      py      :     5.994282
      dz2     :     2.000161  d :    10.000325
      dxz     :     2.000102
      dyz     :     2.000049
      dx2y2   :     2.000003
      dxy     :     2.000010


                     *******************************
                     * LOEWDIN POPULATION ANALYSIS *
                     *******************************

----------------------
LOEWDIN ATOMIC CHARGES
----------------------
   0 C :   -0.086232
   1 C :   -0.081298
   2 Br:   -0.052149
   3 H :    0.042917
   4 H :    0.032849
   5 H :    0.031576
   6 H :    0.038367
   7 H :    0.018229
   8 Br:   -0.944258

-------------------------------
LOEWDIN REDUCED ORBITAL CHARGES
-------------------------------
  0 C s       :     2.848194  s :     2.848194
      pz      :     1.073984  p :     3.166197
      px      :     1.014795
      py      :     1.077418
      dz2     :     0.015148  d :     0.071841
      dxz     :     0.011730
      dyz     :     0.013770
      dx2y2   :     0.017861
      dxy     :     0.013333
  1 C s       :     2.913195  s :     2.913195
      pz      :     1.108944  p :     3.084270
      px      :     1.034461
      py      :     0.940865
      dz2     :     0.015829  d :     0.083833
      dxz     :     0.013640
      dyz     :     0.016011
      dx2y2   :     0.018912
      dxy     :     0.019441
  2 Brs       :     7.830556  s :     7.830556
      pz      :     5.924870  p :    17.169277
      px      :     5.776091
      py      :     5.468316
      dz2     :     2.007170  d :    10.052317
      dxz     :     2.003261
      dyz     :     2.010881
      dx2y2   :     2.012276
      dxy     :     2.018729
  3 H s       :     0.890446  s :     0.890446
      pz      :     0.014436  p :     0.066636
      px      :     0.018581
      py      :     0.033619
  4 H s       :     0.900574  s :     0.900574
      pz      :     0.025884  p :     0.066578
      px      :     0.014304
      py      :     0.026390
  5 H s       :     0.902119  s :     0.902119
      pz      :     0.036449  p :     0.066305
      px      :     0.014808
      py      :     0.015048
  6 H s       :     0.890711  s :     0.890711
      pz      :     0.027111  p :     0.070922
      px      :     0.015393
      py      :     0.028418
  7 H s       :     0.905588  s :     0.905588
      pz      :     0.047462  p :     0.076183
      px      :     0.014595
      py      :     0.014126
  8 Brs       :     7.996553  s :     7.996553
      pz      :     5.961513  p :    17.947366
      px      :     5.990839
      py      :     5.995014
      dz2     :     2.000160  d :    10.000339
      dxz     :     2.000120
      dyz     :     2.000044
      dx2y2   :     2.000003
      dxy     :     2.000011


                      *****************************
                      * MAYER POPULATION ANALYSIS *
                      *****************************

  NA   - Mulliken gross atomic population
  ZA   - Total nuclear charge
  QA   - Mulliken gross atomic charge
  VA   - Mayer's total valence
  BVA  - Mayer's bonded valence
  FA   - Mayer's free valence

  ATOM       NA         ZA         QA         VA         BVA        FA
  0 C      6.0631     6.0000    -0.0631     3.9446     3.9446     0.0000
  1 C      6.1292     6.0000    -0.1292     3.9216     3.9216     0.0000
  2 Br    35.2268    35.0000    -0.2268     0.9960     0.9960     0.0000
  3 H      0.9391     1.0000     0.0609     0.9982     0.9982     0.0000
  4 H      0.9449     1.0000     0.0551     0.9985     0.9985     0.0000
  5 H      0.9449     1.0000     0.0551     0.9869     0.9869     0.0000
  6 H      0.8945     1.0000     0.1055     0.9621     0.9621    -0.0000
  7 H      0.9163     1.0000     0.0837     1.0396     1.0396     0.0000
  8 Br    35.9413    35.0000    -0.9413     0.1190     0.1190    -0.0000

  Mayer bond orders larger than 0.100000
B(  0-C ,  1-C ) :   1.0739 B(  0-C ,  3-H ) :   0.9523 B(  0-C ,  4-H ) :   0.9697 
B(  0-C ,  5-H ) :   0.9706 B(  1-C ,  2-Br) :   0.9628 B(  1-C ,  6-H ) :   0.9513 
B(  1-C ,  7-H ) :   0.9277 B(  7-H ,  8-Br) :   0.1027 


------------------
HIRSHFELD ANALYSIS
------------------

Total integrated alpha density =     43.998271173
Total integrated beta density  =     43.998271173

  ATOM     CHARGE      SPIN    
   0 C   -0.074619    0.000000
   1 C    0.010296    0.000000
   2 Br  -0.172066    0.000000
   3 H    0.037480    0.000000
   4 H    0.028449    0.000000
   5 H    0.029211    0.000000
   6 H    0.044916    0.000000
   7 H    0.018994    0.000000
   8 Br  -0.919204    0.000000

  TOTAL  -0.996542    0.000000

-------
TIMINGS
-------

Total SCF time: 0 days 0 hours 0 min 7 sec 

Total time                  ....       7.504 sec
Sum of individual times     ....       7.286 sec  ( 97.1%)

Fock matrix formation       ....       6.505 sec  ( 86.7%)
  Split-RI-J                ....       1.103 sec  ( 17.0% of F)
  Chain of spheres X        ....       3.034 sec  ( 46.6% of F)
  COS-X 1 center corr.      ....       0.000 sec  (  0.0% of F)
  XC integration            ....       0.359 sec  (  5.5% of F)
    Basis function eval.    ....       0.133 sec  ( 37.1% of XC)
    Density eval.           ....       0.054 sec  ( 15.2% of XC)
    XC-Functional eval.     ....       0.039 sec  ( 10.7% of XC)
    XC-Potential eval.      ....       0.077 sec  ( 21.6% of XC)
Diagonalization             ....       0.010 sec  (  0.1%)
Density matrix formation    ....       0.002 sec  (  0.0%)
Population analysis         ....       0.023 sec  (  0.3%)
Initial guess               ....       0.127 sec  (  1.7%)
Orbital Transformation      ....       0.000 sec  (  0.0%)
Orbital Orthonormalization  ....       0.000 sec  (  0.0%)
DIIS solution               ....       0.003 sec  (  0.0%)
SOSCF solution              ....       0.004 sec  (  0.1%)
Grid generation             ....       0.611 sec  (  8.1%)


-------------------------------------------------------------------------------
                          DFT DISPERSION CORRECTION                            
                                                                               
                              DFTD3 V3.1  Rev 1                                
                          USING Becke-Johnson damping                          
-------------------------------------------------------------------------------
The PBE0 functional is recognized
Active option DFTDOPT                   ...         4   

molecular C6(AA) [au] = 1867.798140 


            DFT-D V3
 parameters
 s6 scaling factor         :     1.0000 
 a1 scaling factor         :     0.4145 
 s8 scaling factor         :     1.2177 
 a2 scaling factor         :     4.8593 
 ad hoc parameters k1-k3   :    16.0000     1.3333    -4.0000 

 Edisp/kcal,au: -3.725053130414  -0.005936249391 
 E6   /kcal   :  -2.212336232 
 E8   /kcal   :  -1.512716898 
 % E8         :  40.609270396 

-------------------------   ----------------
Dispersion correction           -0.005936249
-------------------------   ----------------


-------------------------   --------------------
FINAL SINGLE POINT ENERGY     -5226.340011195561
-------------------------   --------------------


                            ***************************************
                            *     ORCA property calculations      *
                            ***************************************

                                    ---------------------
                                    Active property flags
                                    ---------------------
   (+) Dipole Moment


------------------------------------------------------------------------------
                       ORCA ELECTRIC PROPERTIES CALCULATION
------------------------------------------------------------------------------

Dipole Moment Calculation                       ... on
Quadrupole Moment Calculation                   ... off
Polarizability Calculation                      ... off
GBWName                                         ... manual_reactants_328_freq.gbw
Electron density file                           ... manual_reactants_328_freq.scfp
The origin for moment calculation is the CENTER OF MASS  = (-0.398512, -0.726219  1.506252)

-------------
DIPOLE MOMENT
-------------
                                X             Y             Z
Electronic contribution:      8.10807       3.59024       6.93522
Nuclear contribution   :     -7.49267      -2.12073     -10.75924
                        -----------------------------------------
Total Dipole Moment    :      0.61540       1.46951      -3.82402
                        -----------------------------------------
Magnitude (a.u.)       :      4.14262
Magnitude (Debye)      :     10.52970



--------------------
Rotational spectrum 
--------------------
 
Rotational constants in cm-1:     0.186780     0.015329     0.014431 
Rotational constants in MHz :  5599.537532   459.556750   432.621522 

 Dipole components along the rotational axes: 
x,y,z [a.u.] :    -4.033119    -0.891922    -0.315783 
x,y,z [Debye]:   -10.251373    -2.267084    -0.802657 

 
[1631286089.209819] [comp0801:45612:0]            sys.c:618  UCX  ERROR shmget(size=2097152 flags=0xfb0) for mm_recv_desc failed: Operation not permitted, please check shared memory limits by 'ipcs -l'
[1631286089.210376] [comp0801:45611:0]            sys.c:618  UCX  ERROR shmget(size=2097152 flags=0xfb0) for mm_recv_desc failed: Operation not permitted, please check shared memory limits by 'ipcs -l'
[1631286089.214229] [comp0801:45610:0]            sys.c:618  UCX  ERROR shmget(size=2097152 flags=0xfb0) for mm_recv_desc failed: Operation not permitted, please check shared memory limits by 'ipcs -l'
[1631286089.227363] [comp0801:45613:0]            sys.c:618  UCX  ERROR shmget(size=2097152 flags=0xfb0) for mm_recv_desc failed: Operation not permitted, please check shared memory limits by 'ipcs -l'
[1631286089.235391] [comp0801:45612:0]            sys.c:618  UCX  ERROR shmget(size=2097152 flags=0xb80) for ucp_am_bufs failed: Operation not permitted, please check shared memory limits by 'ipcs -l'
[1631286089.235395] [comp0801:45613:0]            sys.c:618  UCX  ERROR shmget(size=2097152 flags=0xb80) for ucp_am_bufs failed: Operation not permitted, please check shared memory limits by 'ipcs -l'


           ************************************************************
           *        Program running with 4 parallel MPI-processes     *
           *              working on a common directory               *
           ************************************************************
[1631286089.254030] [comp0801:45611:0]            sys.c:618  UCX  ERROR shmget(size=2097152 flags=0xb80) for ucp_am_bufs failed: Operation not permitted, please check shared memory limits by 'ipcs -l'

-------------------------------------------------------------------------------
                               ORCA SCF HESSIAN
-------------------------------------------------------------------------------

Hessian of the Kohn-Sham DFT energy:
Kohn-Sham wavefunction type                      ... RKS
Hartree-Fock exchange scaling                    ...    0.250
Number of operators                              ...    1
Number of atoms                                  ...    9
Basis set dimensions                             ...  117
Integral neglect threshold                       ... 1.0e-10
Integral primitive cutoff                        ... 1.0e-11

Setting up DFT Hessian calculations              ... 
Electron density on the grid                     ... found on disk
Electron density on the final grid               ... found on disk
Building xc-kernel on the grid                   ... done   (      0.0 sec)
Building xc-kernel on the final grid             ... done   (      0.0 sec)
                                                     done   (      0.1 sec)

Nuclear repulsion Hessian                        ... done   (      0.0 sec)
[1631286089.334815] [comp0801:45610:0]            sys.c:618  UCX  ERROR shmget(size=2097152 flags=0xb80) for ucp_am_bufs failed: Operation not permitted, please check shared memory limits by 'ipcs -l'

----------------------------------------------
Forming right-hand sides of CP-SCF equations     ...
----------------------------------------------
One electron integral derivatives                ... done   (      2.6 sec)
Transforming the overlap derivative matrices     ... done   (      0.0 sec)
Adding tr(S(x)F(y) C-PCM term to the hessian     ... done   (      0.4 sec)
Making the Q(x) pseudodensities                  ... done   (      0.0 sec)
Adding the E*S(x)*S(y) terms to the Hessian      ... done   (      0.0 sec)
Calculating energy weighted overlap derivatives  ... done   (      0.0 sec)
Two electron integral derivatives (RI)           ... done   (      1.4 sec)
Exchange-correlation integral derivatives        ... done   (      2.0 sec)
tr(F(y)Q(x)) contribution to the Hessian         ... done   (      0.0 sec)
Response fock operator R(S(x)) (RIJCOSX)         ... done   (      1.4 sec)
XC Response fock operator R(S(x))                ... done   (      0.7 sec)
tr(F(y)S(x)) contribution to the Hessian         ... done   (      0.0 sec)
Transforming and finalizing RHSs                 ... done   (      0.0 sec)

----------------------------------------------
Solving the CP-SCF equations (RIJCOSX)           ...
----------------------------------------------
     CP-SCF ITERATION   0: 
     CP-SCF ITERATION   1:      0.000440226197
     CP-SCF ITERATION   2:      0.000033107399
     CP-SCF ITERATION   3:      0.000004586993
     CP-SCF ITERATION   4:      0.000000910599

                                                 ... done   (      6.2 sec)
Forming perturbed density Hessian contributions  ... done   (      0.0 sec)
Calculating [Q*(d^2 A/dXdY)*Q  ] C-PCM term      ... done   (      0.0 sec)
Calculating [d^2(V_N)/(dXdY)*Q ] C-PCM term      ... done   (      0.0 sec)
Calculating [d^2(V_el)/(dXdY)*Q] C-PCM term      ... done   (      0.3 sec)
Calculating C-PCM term that depends on dQ/dX     ... done   (      0.0 sec)
2nd integral derivative contribs (RI)            ... done   (      6.4 sec)
Exchange-correlation Hessian                     ... done   (      1.9 sec)
Dispersion correction in the Hessian             ... done   (      0.4 sec)
Dipol derivatives                                ... done   (      0.1 sec)

Total SCF Hessian time: 0 days 0 hours 0 min 24 sec 

Writing the Hessian file to the disk             ... done


Maximum memory used throughout the entire calculation: 136.6 MB

-----------------------
VIBRATIONAL FREQUENCIES
-----------------------

Scaling factor for frequencies =  1.000000000  (already applied!)

   0:         0.00 cm**-1
   1:         0.00 cm**-1
   2:         0.00 cm**-1
   3:         0.00 cm**-1
   4:         0.00 cm**-1
   5:         0.00 cm**-1
   6:       -10.08 cm**-1 ***imaginary mode***
   7:        37.91 cm**-1
   8:        63.93 cm**-1
   9:       248.09 cm**-1
  10:       288.91 cm**-1
  11:       560.47 cm**-1
  12:       774.03 cm**-1
  13:       970.65 cm**-1
  14:      1024.45 cm**-1
  15:      1096.39 cm**-1
  16:      1244.98 cm**-1
  17:      1259.88 cm**-1
  18:      1380.38 cm**-1
  19:      1431.27 cm**-1
  20:      1445.15 cm**-1
  21:      1449.13 cm**-1
  22:      3057.98 cm**-1
  23:      3108.92 cm**-1
  24:      3152.83 cm**-1
  25:      3168.57 cm**-1
  26:      3199.34 cm**-1


------------
NORMAL MODES
------------

These modes are the Cartesian displacements weighted by the diagonal matrix
M(i,i)=1/sqrt(m[i]) where m[i] is the mass of the displaced atom
Thus, these vectors are normalized but *not* orthogonal

                  0          1          2          3          4          5    
      0       0.000000   0.000000   0.000000   0.000000   0.000000   0.000000
      1       0.000000   0.000000   0.000000   0.000000   0.000000   0.000000
      2       0.000000   0.000000   0.000000   0.000000   0.000000   0.000000
      3       0.000000   0.000000   0.000000   0.000000   0.000000   0.000000
      4       0.000000   0.000000   0.000000   0.000000   0.000000   0.000000
      5       0.000000   0.000000   0.000000   0.000000   0.000000   0.000000
      6       0.000000   0.000000   0.000000   0.000000   0.000000   0.000000
      7       0.000000   0.000000   0.000000   0.000000   0.000000   0.000000
      8       0.000000   0.000000   0.000000   0.000000   0.000000   0.000000
      9       0.000000   0.000000   0.000000   0.000000   0.000000   0.000000
     10       0.000000   0.000000   0.000000   0.000000   0.000000   0.000000
     11       0.000000   0.000000   0.000000   0.000000   0.000000   0.000000
     12       0.000000   0.000000   0.000000   0.000000   0.000000   0.000000
     13       0.000000   0.000000   0.000000   0.000000   0.000000   0.000000
     14       0.000000   0.000000   0.000000   0.000000   0.000000   0.000000
     15       0.000000   0.000000   0.000000   0.000000   0.000000   0.000000
     16       0.000000   0.000000   0.000000   0.000000   0.000000   0.000000
     17       0.000000   0.000000   0.000000   0.000000   0.000000   0.000000
     18       0.000000   0.000000   0.000000   0.000000   0.000000   0.000000
     19       0.000000   0.000000   0.000000   0.000000   0.000000   0.000000
     20       0.000000   0.000000   0.000000   0.000000   0.000000   0.000000
     21       0.000000   0.000000   0.000000   0.000000   0.000000   0.000000
     22       0.000000   0.000000   0.000000   0.000000   0.000000   0.000000
     23       0.000000   0.000000   0.000000   0.000000   0.000000   0.000000
     24       0.000000   0.000000   0.000000   0.000000   0.000000   0.000000
     25       0.000000   0.000000   0.000000   0.000000   0.000000   0.000000
     26       0.000000   0.000000   0.000000   0.000000   0.000000   0.000000
                  6          7          8          9         10         11    
      0       0.126241   0.070828   0.013292  -0.004967   0.237694   0.069620
      1       0.036673  -0.053579  -0.036359  -0.004373   0.221316   0.018576
      2       0.192586   0.248866   0.176435  -0.005676  -0.065272  -0.007073
      3       0.140284   0.078464   0.019000  -0.002023   0.177425   0.124296
      4       0.131429  -0.075719   0.035601   0.026807  -0.077893   0.449233
      5       0.191560  -0.105160   0.318353   0.090433   0.026578  -0.128678
      6       0.035953  -0.007468  -0.016386   0.001541  -0.075425  -0.033296
      7       0.082611   0.007453  -0.030767  -0.002327  -0.032513  -0.072896
      8      -0.194034   0.000302   0.018625  -0.013210   0.009050   0.020995
      9       0.194513   0.117226   0.042060  -0.013682  -0.088341   0.545752
     10       0.083228  -0.109667   0.019313  -0.164861   0.379447  -0.219205
     11       0.486747   0.137629   0.427701  -0.590748  -0.137546   0.047173
     12       0.112741   0.229863  -0.056580  -0.145138   0.413283  -0.191534
     13       0.226773  -0.226888   0.162194  -0.398064   0.321555  -0.146307
     14      -0.009298   0.494029  -0.057800   0.340774  -0.093661   0.054031
     15       0.067486  -0.128769   0.050022   0.135517   0.438556  -0.198706
     16      -0.261156   0.179218  -0.335016   0.493951   0.367627  -0.134321
     17       0.120044   0.388694   0.071066   0.100877  -0.088874   0.034911
     18       0.155754  -0.075353   0.092819   0.041063   0.139329   0.077320
     19      -0.007516   0.059852  -0.113019  -0.006837  -0.097832   0.354285
     20       0.344397  -0.320431   0.508845   0.146929   0.027634  -0.051471
     21       0.190672   0.286473  -0.041531  -0.044525   0.130614   0.091234
     22       0.353024  -0.261278   0.264538   0.081432  -0.087750   0.349275
     23       0.233450  -0.224738   0.399921   0.119911   0.040206  -0.147440
     24      -0.085117  -0.020392   0.010436  -0.000152  -0.000015   0.000057
     25      -0.112856   0.016510   0.030906  -0.001117  -0.000188   0.000003
     26       0.121459  -0.027900  -0.110032  -0.001016  -0.000051   0.000204
                 12         13         14         15         16         17    
      0      -0.003114  -0.128956  -0.002025   0.179111   0.004397  -0.000703
      1      -0.007085  -0.096495  -0.019806  -0.142266   0.040788   0.056130
      2      -0.029475   0.031313  -0.075696   0.034419   0.112373  -0.033475
      3       0.000815   0.099270   0.002218  -0.251324  -0.019116  -0.100171
      4      -0.022617   0.058524   0.025731   0.092228  -0.032859  -0.072209
      5      -0.084588  -0.018095   0.097088  -0.022801  -0.077660   0.032023
      6       0.000136   0.001359  -0.000149   0.002939  -0.000110  -0.000431
      7       0.001562  -0.005656  -0.002412  -0.000659  -0.001436  -0.004617
      8       0.004500   0.001599  -0.006421   0.000198  -0.001936   0.001776
      9      -0.008971  -0.715167  -0.003795  -0.179198   0.038008   0.203653
     10       0.048327   0.205668   0.060054   0.053327  -0.066150  -0.036323
     11       0.156355  -0.054339   0.208078  -0.005851  -0.200501   0.043803
     12       0.376448   0.147040   0.302633   0.586792  -0.301789   0.035387
     13      -0.057135   0.182843  -0.070609   0.106101   0.103674  -0.093463
     14       0.187081  -0.131179   0.114501  -0.058732  -0.087421   0.127549
     15      -0.372716   0.177400  -0.304104   0.573813   0.292820  -0.041524
     16       0.149847   0.204339   0.118702   0.130301  -0.173082  -0.093074
     17       0.146573   0.012770   0.075605  -0.007266  -0.053637  -0.057791
     18       0.317809   0.317462   0.308918  -0.178200   0.643913   0.424557
     19      -0.305551   0.160051   0.491486   0.172855   0.210018   0.346879
     20       0.360627  -0.021341  -0.230111  -0.052571  -0.004616  -0.140464
     21      -0.295839   0.321976  -0.295101  -0.178643  -0.486053   0.611920
     22       0.415275   0.146010  -0.481962   0.191074  -0.053690   0.438528
     23       0.131520  -0.072313   0.074406  -0.034086   0.079099  -0.087620
     24      -0.000001  -0.000034   0.000012   0.000037  -0.000035   0.000027
     25      -0.000261   0.000024   0.000037  -0.000065  -0.000018  -0.000063
     26       0.000256  -0.000225   0.000146   0.000055   0.000087  -0.000113
                 18         19         20         21         22         23    
      0       0.154891   0.006079   0.039538   0.004629   0.051594  -0.001172
      1      -0.007653  -0.012505  -0.028378   0.040549   0.004600   0.009270
      2       0.002266  -0.039749   0.010035  -0.009700   0.001874  -0.004162
      3      -0.025328  -0.007877  -0.070734  -0.036536  -0.001910   0.038701
      4      -0.007424  -0.001723   0.025853   0.054052   0.000280  -0.049054
      5       0.001504  -0.024629  -0.001031  -0.010725  -0.001307   0.030118
      6      -0.000035   0.000051   0.000321   0.000261  -0.000013  -0.000039
      7      -0.000703   0.000191   0.000875   0.000922  -0.000022   0.000109
      8       0.000236   0.000089  -0.000348  -0.000347   0.000010  -0.000069
      9      -0.531028   0.000319   0.149218  -0.226503  -0.297257  -0.035009
     10       0.321974   0.184172  -0.093369   0.144617  -0.564507  -0.070241
     11      -0.097315   0.654345  -0.049618  -0.058567   0.158134   0.019209
     12      -0.465508  -0.407318  -0.153965   0.137482  -0.132145   0.009153
     13      -0.183081  -0.304709   0.257521  -0.282968   0.345790  -0.020548
     14      -0.071637   0.104709  -0.362411   0.372587   0.334334  -0.024012
     15      -0.480947   0.358402  -0.225208   0.099731  -0.165294   0.015484
     16      -0.143789   0.349286   0.341008  -0.463465   0.158798  -0.013676
     17       0.169061  -0.035954   0.207004  -0.190974  -0.513571   0.053179
     18      -0.035870   0.078242   0.280601   0.170713  -0.001200  -0.181849
     19       0.096649  -0.048003  -0.175796  -0.206870   0.005726   0.389446
     20      -0.099791   0.059809   0.363767   0.348611   0.005899   0.390075
     21      -0.024375  -0.019317   0.295914   0.173683   0.005420  -0.253762
     22       0.147361  -0.027277  -0.382263  -0.396181  -0.002347   0.179789
     23       0.036150  -0.029718  -0.227010  -0.196509   0.007875  -0.742026
     24      -0.000042   0.000089  -0.000004   0.000056  -0.000006   0.000024
     25      -0.000047   0.000011   0.000172   0.000058   0.000002   0.000008
     26      -0.000001   0.000087  -0.000144  -0.000053  -0.000003  -0.000003
                  24         25         26    
      0       0.005140  -0.000814   0.001033
      1       0.085859   0.031683   0.008884
      2      -0.032989   0.084485   0.025670
      3      -0.003051   0.002242  -0.006375
      4       0.006824  -0.010074   0.033191
      5      -0.003112  -0.025356   0.086488
      6      -0.000063  -0.000001   0.000016
      7      -0.000109  -0.000005  -0.000017
      8       0.000036   0.000019  -0.000119
      9      -0.342390  -0.020797  -0.008425
     10      -0.630345  -0.034244  -0.013817
     11       0.175482   0.023229   0.006153
     12       0.109869   0.207659   0.061812
     13      -0.257780  -0.516964  -0.148327
     14      -0.267771  -0.492703  -0.141342
     15       0.163796  -0.180747  -0.060237
     16      -0.140003   0.174039   0.054265
     17       0.487540  -0.540040  -0.171102
     18       0.021803  -0.073500   0.248531
     19      -0.047387   0.160620  -0.524337
     20      -0.044131   0.156823  -0.516098
     21       0.027300   0.049984  -0.180569
     22      -0.020269  -0.039788   0.132073
     23       0.076914   0.146132  -0.505557
     24      -0.000003   0.000006   0.000016
     25       0.000000  -0.000009   0.000002
     26      -0.000009   0.000006   0.000012


-----------
IR SPECTRUM
-----------

 Mode    freq (cm**-1)   T**2         TX         TY         TZ
-------------------------------------------------------------------
   7:        37.91    1.774634  (  1.163860  -0.641876  -0.089779)
   8:        63.93   16.913997  ( -0.157750  -0.686795   4.051842)
   9:       248.09    0.563625  ( -0.255833  -0.561139   0.428133)
  10:       288.91    4.260451  (  1.695222   1.100890  -0.417990)
  11:       560.47   37.868549  (  4.053861   4.335602  -1.623979)
  12:       774.03   16.713365  (  0.275067   0.058419   4.078516)
  13:       970.65   46.823405  (  4.012237   4.851928  -2.680327)
  14:      1024.45    4.733450  ( -0.300543  -0.167426   2.148277)
  15:      1096.39    0.584935  ( -0.744264   0.175522  -0.014053)
  16:      1244.98    5.584156  ( -1.172665  -1.765190   1.045523)
  17:      1259.88   71.961420  ( -4.963139  -6.879560   0.018173)
  18:      1380.38   12.182687  ( -3.455894  -0.180820  -0.454737)
  19:      1431.27   24.301322  (  0.832042   1.023957   4.749794)
  20:      1445.15    7.770050  (  1.123718   1.465118  -2.088238)
  21:      1449.13    5.969472  (  1.886012  -1.537442  -0.220686)
  22:      3057.98   15.100733  (  3.848398   0.221062   0.491631)
  23:      3108.92   23.253715  (  1.946883  -0.811498  -4.336454)
  24:      3152.83   11.467439  ( -0.972820   3.038066  -1.136316)
  25:      3168.57   17.536761  ( -0.079035   0.318457   4.174817)
  26:      3199.34    9.762052  (  0.395937   2.897698  -1.099377)

The first frequency considered to be a vibration is 7
The total number of vibrations considered is 20


--------------------------
THERMOCHEMISTRY AT 298.15K
--------------------------

Temperature         ... 298.15 K
Pressure            ... 1.00 atm
Total Mass          ... 188.86 AMU

Throughout the following assumptions are being made:
  (1) The electronic state is orbitally nondegenerate
  (2) There are no thermally accessible electronically excited states
  (3) Hindered rotations indicated by low frequency modes are not
      treated as such but are treated as vibrations and this may
      cause some error
  (4) All equations used are the standard statistical mechanics
      equations for an ideal gas
  (5) All vibrations are strictly harmonic

freq.      37.91  E(vib)   ...       0.54 
freq.      63.93  E(vib)   ...       0.51 
freq.     248.09  E(vib)   ...       0.31 
freq.     288.91  E(vib)   ...       0.27 
freq.     560.47  E(vib)   ...       0.11 
freq.     774.03  E(vib)   ...       0.05 
freq.     970.65  E(vib)   ...       0.03 
freq.    1024.45  E(vib)   ...       0.02 
freq.    1096.39  E(vib)   ...       0.02 
freq.    1244.98  E(vib)   ...       0.01 
freq.    1259.88  E(vib)   ...       0.01 
freq.    1380.38  E(vib)   ...       0.01 
freq.    1431.27  E(vib)   ...       0.00 
freq.    1445.15  E(vib)   ...       0.00 
freq.    1449.13  E(vib)   ...       0.00 
freq.    3057.98  E(vib)   ...       0.00 
freq.    3108.92  E(vib)   ...       0.00 
freq.    3152.83  E(vib)   ...       0.00 
freq.    3168.57  E(vib)   ...       0.00 
freq.    3199.34  E(vib)   ...       0.00 

------------
INNER ENERGY
------------

The inner energy is: U= E(el) + E(ZPE) + E(vib) + E(rot) + E(trans)
    E(el)   - is the total energy from the electronic structure calculation
              = E(kin-el) + E(nuc-el) + E(el-el) + E(nuc-nuc)
    E(ZPE)  - the the zero temperature vibrational energy from the frequency calculation
    E(vib)  - the the finite temperature correction to E(ZPE) due to population
              of excited vibrational states
    E(rot)  - is the rotational thermal energy
    E(trans)- is the translational thermal energy

Summary of contributions to the inner energy U:
Electronic energy                ...  -5226.34001120 Eh
Zero point energy                ...      0.06598321 Eh      41.40 kcal/mol
Thermal vibrational correction   ...      0.00301334 Eh       1.89 kcal/mol
Thermal rotational correction    ...      0.00141627 Eh       0.89 kcal/mol
Thermal translational correction ...      0.00141627 Eh       0.89 kcal/mol
-----------------------------------------------------------------------
Total thermal energy                  -5226.26818210 Eh


Summary of corrections to the electronic energy:
(perhaps to be used in another calculation)
Total thermal correction                  0.00584588 Eh       3.67 kcal/mol
Non-thermal (ZPE) correction              0.06598321 Eh      41.40 kcal/mol
-----------------------------------------------------------------------
Total correction                          0.07182909 Eh      45.07 kcal/mol


--------
ENTHALPY
--------

The enthalpy is H = U + kB*T
                kB is Boltzmann's constant
Total free energy                 ...  -5226.26818210 Eh 
Thermal Enthalpy correction       ...      0.00094421 Eh       0.59 kcal/mol
-----------------------------------------------------------------------
Total Enthalpy                    ...  -5226.26723790 Eh


Note: Only C1 symmetry has been detected, increase convergence thresholds 
      if your molecule has a higher symmetry. Symmetry factor of 1.0 is   
      used for the rotational entropy correction. 
 

Note: Rotational entropy computed according to Herzberg 
Infrared and Raman Spectra, Chapter V,1, Van Nostrand Reinhold, 1945 
Point Group:  C1, Symmetry Number:   1  
Rotational constants in cm-1:     0.186780     0.015329     0.014431 

Vibrational entropy computed according to the QRRHO of S. Grimme
Chem.Eur.J. 2012 18 9955


-------
ENTROPY
-------

The entropy contributions are T*S = T*(S(el)+S(vib)+S(rot)+S(trans))
     S(el)   - electronic entropy
     S(vib)  - vibrational entropy
     S(rot)  - rotational entropy
     S(trans)- translational entropy
The entropies will be listed as mutliplied by the temperature to get
units of energy

Electronic entropy                ...      0.00000000 Eh      0.00 kcal/mol
Vibrational entropy               ...      0.00554490 Eh      3.48 kcal/mol
Rotational entropy                ...      0.01427619 Eh      8.96 kcal/mol
Translational entropy             ...      0.01977177 Eh     12.41 kcal/mol
-----------------------------------------------------------------------
Final entropy term                ...      0.03959286 Eh     24.84 kcal/mol

In case the symmetry of your molecule has not been determined correctly
or in case you have a reason to use a different symmetry number we print 
out the resulting rotational entropy values for sn=1,12 :
 --------------------------------------------------------
|  sn= 1 | S(rot)=       0.01427619 Eh      8.96 kcal/mol|
|  sn= 2 | S(rot)=       0.01362174 Eh      8.55 kcal/mol|
|  sn= 3 | S(rot)=       0.01323891 Eh      8.31 kcal/mol|
|  sn= 4 | S(rot)=       0.01296728 Eh      8.14 kcal/mol|
|  sn= 5 | S(rot)=       0.01275659 Eh      8.00 kcal/mol|
|  sn= 6 | S(rot)=       0.01258445 Eh      7.90 kcal/mol|
|  sn= 7 | S(rot)=       0.01243890 Eh      7.81 kcal/mol|
|  sn= 8 | S(rot)=       0.01231282 Eh      7.73 kcal/mol|
|  sn= 9 | S(rot)=       0.01220162 Eh      7.66 kcal/mol|
|  sn=10 | S(rot)=       0.01210214 Eh      7.59 kcal/mol|
|  sn=11 | S(rot)=       0.01201215 Eh      7.54 kcal/mol|
|  sn=12 | S(rot)=       0.01192999 Eh      7.49 kcal/mol|
 --------------------------------------------------------


-------------------
GIBBS FREE ENERGY
-------------------

The Gibbs free energy is G = H - T*S

Total enthalpy                    ...  -5226.26723790 Eh 
Total entropy correction          ...     -0.03959286 Eh    -24.84 kcal/mol
-----------------------------------------------------------------------
Final Gibbs free energy         ...  -5226.30683076 Eh

For completeness - the Gibbs free energy minus the electronic energy
G-E(el)                           ...      0.03318044 Eh     20.82 kcal/mol

[1631286115.288545] [comp0801:45667:0]            sys.c:618  UCX  ERROR shmget(size=2097152 flags=0xfb0) for mm_recv_desc failed: Operation not permitted, please check shared memory limits by 'ipcs -l'
[1631286115.293838] [comp0801:45669:0]            sys.c:618  UCX  ERROR shmget(size=2097152 flags=0xfb0) for mm_recv_desc failed: Operation not permitted, please check shared memory limits by 'ipcs -l'
[1631286115.294618] [comp0801:45670:0]            sys.c:618  UCX  ERROR shmget(size=2097152 flags=0xfb0) for mm_recv_desc failed: Operation not permitted, please check shared memory limits by 'ipcs -l'
[1631286115.296976] [comp0801:45668:0]            sys.c:618  UCX  ERROR shmget(size=2097152 flags=0xfb0) for mm_recv_desc failed: Operation not permitted, please check shared memory limits by 'ipcs -l'
[1631286115.304725] [comp0801:45667:0]            sys.c:618  UCX  ERROR shmget(size=2097152 flags=0xb80) for ucp_am_bufs failed: Operation not permitted, please check shared memory limits by 'ipcs -l'
[1631286115.305402] [comp0801:45669:0]            sys.c:618  UCX  ERROR shmget(size=2097152 flags=0xb80) for ucp_am_bufs failed: Operation not permitted, please check shared memory limits by 'ipcs -l'
[1631286115.306153] [comp0801:45668:0]            sys.c:618  UCX  ERROR shmget(size=2097152 flags=0xb80) for ucp_am_bufs failed: Operation not permitted, please check shared memory limits by 'ipcs -l'
[1631286115.315453] [comp0801:45670:0]            sys.c:618  UCX  ERROR shmget(size=2097152 flags=0xb80) for ucp_am_bufs failed: Operation not permitted, please check shared memory limits by 'ipcs -l'

Timings for individual modules:

Sum of individual times         ...       35.861 sec (=   0.598 min)
GTO integral calculation        ...        1.390 sec (=   0.023 min)   3.9 %
SCF iterations                  ...        8.499 sec (=   0.142 min)  23.7 %
Analytical frequency calculation...       25.972 sec (=   0.433 min)  72.4 %
                             ****ORCA TERMINATED NORMALLY****
TOTAL RUN TIME: 0 days 0 hours 0 minutes 37 seconds 212 msec
