
                                 *****************
                                 * O   R   C   A *
                                 *****************

           --- An Ab Initio, DFT and Semiempirical electronic structure package ---

                  #######################################################
                  #                        -***-                        #
                  #          Department of theory and spectroscopy      #
                  #               Directorship: Frank Neese             #
                  #        Max Planck Institute fuer Kohlenforschung    #
                  #                Kaiser Wilhelm Platz 1               #
                  #                 D-45470 Muelheim/Ruhr               #
                  #                      Germany                        #
                  #                                                     #
                  #                  All rights reserved                #
                  #                        -***-                        #
                  #######################################################


                         Program Version 4.2.1 -  RELEASE  -


 With contributions from (in alphabetic order):
   Daniel Aravena         : Magnetic Suceptibility
   Michael Atanasov       : Ab Initio Ligand Field Theory (pilot matlab implementation)
   Alexander A. Auer      : GIAO ZORA, VPT2
   Ute Becker             : Parallelization
   Giovanni Bistoni       : ED, misc. LED, open-shell LED, HFLD
   Martin Brehm           : Molecular dynamics
   Dmytro Bykov           : SCF Hessian
   Vijay G. Chilkuri      : MRCI spin determinant printing, contributions to CSF-ICE
   Dipayan Datta          : RHF DLPNO-CCSD density
   Achintya Kumar Dutta   : EOM-CC, STEOM-CC
   Dmitry Ganyushin       : Spin-Orbit,Spin-Spin,Magnetic field MRCI
   Miquel Garcia          : C-PCM Hessian, Gaussian charge scheme
   Yang Guo               : DLPNO-NEVPT2, CIM, IAO-localization
   Andreas Hansen         : Spin unrestricted coupled pair/coupled cluster methods
   Benjamin Helmich-Paris : CASSCF linear response (MC-RPA)
   Lee Huntington         : MR-EOM, pCC
   Robert Izsak           : Overlap fitted RIJCOSX, COSX-SCS-MP3, EOM
   Christian Kollmar      : KDIIS, OOCD, Brueckner-CCSD(T), CCSD density
   Simone Kossmann        : Meta GGA functionals, TD-DFT gradient, OOMP2, MP2 Hessian
   Martin Krupicka        : AUTO-CI
   Lucas Lang             : DCDCAS
   Dagmar Lenk            : GEPOL surface, SMD
   Dimitrios Liakos       : Extrapolation schemes; Compound Job, initial MDCI parallelization
   Dimitrios Manganas     : Further ROCIS development; embedding schemes
   Dimitrios Pantazis     : SARC Basis sets
   Taras Petrenko         : DFT Hessian,TD-DFT gradient, ASA, ECA, R-Raman, ABS, FL, XAS/XES, NRVS
   Peter Pinski           : DLPNO-MP2, DLPNO-MP2 Gradient
   Christoph Reimann      : Effective Core Potentials
   Marius Retegan         : Local ZFS, SOC
   Christoph Riplinger    : Optimizer, TS searches, QM/MM, DLPNO-CCSD(T), (RO)-DLPNO pert. Triples
   Tobias Risthaus        : Range-separated hybrids, TD-DFT gradient, RPA, STAB
   Michael Roemelt        : Original ROCIS implementation
   Masaaki Saitow         : Open-shell DLPNO-CCSD energy and density
   Barbara Sandhoefer     : DKH picture change effects
   Avijit Sen             : IP-ROCIS
   Kantharuban Sivalingam : CASSCF convergence, NEVPT2, FIC-MRCI
   Bernardo de Souza      : ESD, SOC TD-DFT
   Georgi Stoychev        : AutoAux, RI-MP2 NMR
   Willem Van den Heuvel  : Paramagnetic NMR
   Boris Wezisla          : Elementary symmetry handling
   Frank Wennmohs         : Technical directorship


 We gratefully acknowledge several colleagues who have allowed us to
 interface, adapt or use parts of their codes:
   Stefan Grimme, W. Hujo, H. Kruse,             : VdW corrections, initial TS optimization,
                  C. Bannwarth                     DFT functionals, gCP, sTDA/sTD-DF
   Ed Valeev, F. Pavosevic, A. Kumar             : LibInt (2-el integral package), F12 methods
   Garnet Chan, S. Sharma, J. Yang, R. Olivares  : DMRG
   Ulf Ekstrom                                   : XCFun DFT Library
   Mihaly Kallay                                 : mrcc  (arbitrary order and MRCC methods)
   Andreas Klamt, Michael Diedenhofen            : otool_cosmo (COSMO solvation model)
   Jiri Pittner, Ondrej Demel                    : Mk-CCSD
   Frank Weinhold                                : gennbo (NPA and NBO analysis)
   Christopher J. Cramer and Donald G. Truhlar   : smd solvation model
   Lars Goerigk                                  : TD-DFT with DH, B97 family of functionals
   V. Asgeirsson, H. Jonsson                     : NEB implementation
   FAccTs GmbH                                   : IRC, NEB, NEB-TS, Multilevel, MM, QM/MM, CI optimization
   S Lehtola, MJT Oliveira, MAL Marques          : LibXC Library


 Your calculation uses the libint2 library for the computation of 2-el integrals
 For citations please refer to: http://libint.valeyev.net

 Your ORCA version has been built with support for libXC version: 4.2.3
 For citations please refer to: https://tddft.org/programs/libxc/

 This ORCA versions uses:
   CBLAS   interface :  Fast vector & matrix operations
   LAPACKE interface :  Fast linear algebra routines
   SCALAPACK package :  Parallel linear algebra routines


Your calculation utilizes the atom-pairwise dispersion correction
with the Becke-Johnson damping scheme (D3BJ)
Cite in your paper:
S.Grimme, S.Ehrlich, L.Goerigk, J Comput Chem, (2011), 32, 1456–1465 
S.Grimme, J.Antony, S.Ehrlich and H.Krieg, J.Chem.Phys., 132, (2010), 154104 
   

----- Orbital basis set information -----
Your calculation utilizes the basis: def2-SVP
   F. Weigend and R. Ahlrichs, Phys. Chem. Chem. Phys. 7, 3297 (2005).

----- AuxJ basis set information -----
Your calculation utilizes the auxiliary basis: def2/J
   F. Weigend, Phys. Chem. Chem. Phys. 8, 1057 (2006).

================================================================================
                                        WARNINGS
                       Please study these warnings very carefully!
================================================================================


INFO   : the flag for use of LIBINT has been found!

================================================================================
                                       INPUT FILE
================================================================================
NAME = manual_reactants_339_freq.inp
|  1> ! Freq PBE0 RIJCOSX D3BJ def2-SVP def2/J CPCM(Acetone)
|  2> %geom MaxIter 100 end
|  3> %output 
|  4> xyzfile=True 
|  5> end 
|  6> %scf 
|  7> maxiter 250 
|  8> end
|  9> %output
| 10> Print[P_Hirshfeld] = 1
| 11> end
| 12> % maxcore
| 13> 4000
| 14> %pal nprocs 4
| 15> end
| 16> *xyz -1 1
| 17>   C   1.40420650661284     -0.44746594895112     -0.70835690274319
| 18>   C   0.03845186361816     -0.17339749570810     -0.12768038651962
| 19>   C   -0.70555536336300     -1.41535539685369      0.29867827417430
| 20>   Br  -1.04966485865660      0.85378556413255     -1.45298635230071
| 21>   H   1.90703891189243      0.47740003217115     -1.02561305937239
| 22>   H   1.33652356518682     -1.12596196662642     -1.57311241983143
| 23>   H   1.99299789639203     -0.93759628183692      0.08977867747395
| 24>   H   0.10683344954809      0.53498215344063      0.70942792765054
| 25>   H   -1.67860383207555     -1.17368335750122      0.75122538531939
| 26>   H   -0.06971231827735     -1.91679458422128      1.05134815140855
| 27>   H   -0.86626917254884     -2.09711454989401     -0.55061080354824
| 28>   Cl  2.24530335167097     -2.03496816815156      2.38240150828885
| 29> *
| 30> 
| 31>                          ****END OF INPUT****
================================================================================

                       ****************************
                       * Single Point Calculation *
                       ****************************

---------------------------------
CARTESIAN COORDINATES (ANGSTROEM)
---------------------------------
  C      1.404207   -0.447466   -0.708357
  C      0.038452   -0.173397   -0.127680
  C     -0.705555   -1.415355    0.298678
  Br    -1.049665    0.853786   -1.452986
  H      1.907039    0.477400   -1.025613
  H      1.336524   -1.125962   -1.573112
  H      1.992998   -0.937596    0.089779
  H      0.106833    0.534982    0.709428
  H     -1.678604   -1.173683    0.751225
  H     -0.069712   -1.916795    1.051348
  H     -0.866269   -2.097115   -0.550611
  Cl     2.245303   -2.034968    2.382402

----------------------------
CARTESIAN COORDINATES (A.U.)
----------------------------
  NO LB      ZA    FRAG     MASS         X           Y           Z
   0 C     6.0000    0    12.011    2.653566   -0.845588   -1.338601
   1 C     6.0000    0    12.011    0.072663   -0.327674   -0.241281
   2 C     6.0000    0    12.011   -1.333306   -2.674634    0.564420
   3 Br   35.0000    0    79.900   -1.983579    1.613421   -2.745746
   4 H     1.0000    0     1.008    3.603781    0.902155   -1.938128
   5 H     1.0000    0     1.008    2.525664   -2.127760   -2.972752
   6 H     1.0000    0     1.008    3.766220   -1.771800    0.169657
   7 H     1.0000    0     1.008    0.201886    1.010970    1.340624
   8 H     1.0000    0     1.008   -3.172102   -2.217940    1.419610
   9 H     1.0000    0     1.008   -0.131737   -3.622217    1.986760
  10 H     1.0000    0     1.008   -1.637011   -3.962972   -1.040504
  11 Cl   17.0000    0    35.453    4.243008   -3.845533    4.502086

--------------------------------
INTERNAL COORDINATES (ANGSTROEM)
--------------------------------
 C      0   0   0     0.000000000000     0.00000000     0.00000000
 C      1   0   0     1.509166815968     0.00000000     0.00000000
 C      2   1   0     1.509234206333   113.91488378     0.00000000
 Br     2   1   3     1.998884424536   109.32009780   236.51573182
 H      1   2   3     1.099485779697   111.84756904   178.85517625
 H      1   2   3     1.101244718896   111.00241414    57.32303955
 H      1   2   3     1.106310737678   106.52939048   298.73688780
 H      2   1   3     1.098739322258   110.72644777   124.92316528
 H      3   2   1     1.100012538508   111.80817029   177.82322616
 H      3   2   1     1.105553970056   106.38224220    58.73087835
 H      3   2   1     1.100870750250   111.32424479   299.90819986
 Cl     7   1   2     2.554212705319   152.93174964     8.64601547

---------------------------
INTERNAL COORDINATES (A.U.)
---------------------------
 C      0   0   0     0.000000000000     0.00000000     0.00000000
 C      1   0   0     2.851911972581     0.00000000     0.00000000
 C      2   1   0     2.852039321916   113.91488378     0.00000000
 Br     2   1   3     3.777344135734   109.32009780   236.51573182
 H      1   2   3     2.077727011768   111.84756904   178.85517625
 H      1   2   3     2.081050925140   111.00241414    57.32303955
 H      1   2   3     2.090624313228   106.52939048   298.73688780
 H      2   1   3     2.076316411637   110.72644777   124.92316528
 H      3   2   1     2.078722441659   111.80817029   177.82322616
 H      3   2   1     2.089194229676   106.38224220    58.73087835
 H      3   2   1     2.080344226817   111.32424479   299.90819986
 Cl     7   1   2     4.826762500834   152.93174964     8.64601547

---------------------
BASIS SET INFORMATION
---------------------
There are 4 groups of distinct atoms

 Group   1 Type C   : 7s4p1d contracted to 3s2p1d pattern {511/31/1}
 Group   2 Type Br  : 14s10p6d contracted to 5s4p3d pattern {63311/5311/411}
 Group   3 Type H   : 4s1p contracted to 2s1p pattern {31/1}
 Group   4 Type Cl  : 10s7p1d contracted to 4s3p1d pattern {5311/511/1}

Atom   0C    basis set group =>   1
Atom   1C    basis set group =>   1
Atom   2C    basis set group =>   1
Atom   3Br   basis set group =>   2
Atom   4H    basis set group =>   3
Atom   5H    basis set group =>   3
Atom   6H    basis set group =>   3
Atom   7H    basis set group =>   3
Atom   8H    basis set group =>   3
Atom   9H    basis set group =>   3
Atom  10H    basis set group =>   3
Atom  11Cl   basis set group =>   4
---------------------------------
AUXILIARY/J BASIS SET INFORMATION
---------------------------------
There are 4 groups of distinct atoms

 Group   1 Type C   : 12s5p4d2f1g contracted to 6s4p3d1f1g pattern {711111/2111/211/2/1}
 Group   2 Type Br  : 19s5p5d3f1g contracted to 8s4p3d2f1g pattern {121111111/2111/311/21/1}
 Group   3 Type H   : 5s2p1d contracted to 3s1p1d pattern {311/2/1}
 Group   4 Type Cl  : 14s5p5d2f1g contracted to 8s4p3d1f1g pattern {71111111/2111/311/2/1}

Atom   0C    basis set group =>   1
Atom   1C    basis set group =>   1
Atom   2C    basis set group =>   1
Atom   3Br   basis set group =>   2
Atom   4H    basis set group =>   3
Atom   5H    basis set group =>   3
Atom   6H    basis set group =>   3
Atom   7H    basis set group =>   3
Atom   8H    basis set group =>   3
Atom   9H    basis set group =>   3
Atom  10H    basis set group =>   3
Atom  11Cl   basis set group =>   4
[1631721847.760553] [comp0814:164246:0]            sys.c:618  UCX  ERROR shmget(size=2097152 flags=0xfb0) for mm_recv_desc failed: Operation not permitted, please check shared memory limits by 'ipcs -l'
[1631721847.775180] [comp0814:164250:0]            sys.c:618  UCX  ERROR shmget(size=2097152 flags=0xfb0) for mm_recv_desc failed: Operation not permitted, please check shared memory limits by 'ipcs -l'
[1631721847.775102] [comp0814:164252:0]            sys.c:618  UCX  ERROR shmget(size=2097152 flags=0xfb0) for mm_recv_desc failed: Operation not permitted, please check shared memory limits by 'ipcs -l'
[1631721847.776761] [comp0814:164242:0]            sys.c:618  UCX  ERROR shmget(size=2097152 flags=0xfb0) for mm_recv_desc failed: Operation not permitted, please check shared memory limits by 'ipcs -l'
[1631721847.808158] [comp0814:164242:0]            sys.c:618  UCX  ERROR shmget(size=2097152 flags=0xb80) for ucp_am_bufs failed: Operation not permitted, please check shared memory limits by 'ipcs -l'
[1631721847.814379] [comp0814:164252:0]            sys.c:618  UCX  ERROR shmget(size=2097152 flags=0xb80) for ucp_am_bufs failed: Operation not permitted, please check shared memory limits by 'ipcs -l'
[1631721847.814509] [comp0814:164250:0]            sys.c:618  UCX  ERROR shmget(size=2097152 flags=0xb80) for ucp_am_bufs failed: Operation not permitted, please check shared memory limits by 'ipcs -l'
[1631721847.815260] [comp0814:164246:0]            sys.c:618  UCX  ERROR shmget(size=2097152 flags=0xb80) for ucp_am_bufs failed: Operation not permitted, please check shared memory limits by 'ipcs -l'


           ************************************************************
           *        Program running with 4 parallel MPI-processes     *
           *              working on a common directory               *
           ************************************************************
------------------------------------------------------------------------------
                           ORCA GTO INTEGRAL CALCULATION
                           -- RI-GTO INTEGRALS CHOSEN --
------------------------------------------------------------------------------

                         BASIS SET STATISTICS AND STARTUP INFO

Gaussian basis set:
 # of primitive gaussian shells          ...  119
 # of primitive gaussian functions       ...  231
 # of contracted shells                  ...   59
 # of contracted basis functions         ...  127
 Highest angular momentum                ...    2
 Maximum contraction depth               ...    6
Auxiliary gaussian basis set:
 # of primitive gaussian shells          ...  188
 # of primitive gaussian functions       ...  488
 # of contracted shells                  ...  115
 # of contracted aux-basis functions     ...  333
 Highest angular momentum                ...    4
 Maximum contraction depth               ...   12
Ratio of auxiliary to basis functions    ...  2.62
Integral package used                  ... LIBINT
 One Electron integrals                  ... done
 Ordering auxiliary basis shells         ... done
 Integral threshhold             Thresh  ...  1.000e-10
 Primitive cut-off               TCut    ...  1.000e-11
 Pre-screening matrix                    ... done
 Shell pair data                         ... 
 Ordering of the shell pairs             ... done (   0.000 sec) 1653 of 1770 pairs
 Determination of significant pairs      ... done (   0.000 sec)
 Creation of shell pair data             ... done (   0.000 sec)
 Storage of shell pair data              ... done (   0.001 sec)
 Shell pair data done in (   0.002 sec)
 Computing two index integrals           ... done
 Cholesky decomposition of the V-matrix  ... done


Timings:
 Total evaluation time                   ...   0.129 sec (  0.002 min)
 One electron matrix time                ...   0.017 sec (  0.000 min) = 12.8%
 Schwartz matrix evaluation time         ...   0.092 sec (  0.002 min) = 71.1%
 Two index repulsion integral time       ...   0.002 sec (  0.000 min) =  1.7%
 Cholesky decomposition of V             ...   0.002 sec (  0.000 min) =  1.4%
 Three index repulsion integral time     ...   0.000 sec (  0.000 min) =  0.0%

[1631721848.940629] [comp0814:164323:0]            sys.c:618  UCX  ERROR shmget(size=2097152 flags=0xfb0) for mm_recv_desc failed: Operation not permitted, please check shared memory limits by 'ipcs -l'
[1631721848.959291] [comp0814:164330:0]            sys.c:618  UCX  ERROR shmget(size=2097152 flags=0xfb0) for mm_recv_desc failed: Operation not permitted, please check shared memory limits by 'ipcs -l'
[1631721848.962973] [comp0814:164326:0]            sys.c:618  UCX  ERROR shmget(size=2097152 flags=0xfb0) for mm_recv_desc failed: Operation not permitted, please check shared memory limits by 'ipcs -l'
[1631721848.972034] [comp0814:164334:0]            sys.c:618  UCX  ERROR shmget(size=2097152 flags=0xfb0) for mm_recv_desc failed: Operation not permitted, please check shared memory limits by 'ipcs -l'
[1631721848.992437] [comp0814:164334:0]            sys.c:618  UCX  ERROR shmget(size=2097152 flags=0xb80) for ucp_am_bufs failed: Operation not permitted, please check shared memory limits by 'ipcs -l'
[1631721848.993258] [comp0814:164323:0]            sys.c:618  UCX  ERROR shmget(size=2097152 flags=0xb80) for ucp_am_bufs failed: Operation not permitted, please check shared memory limits by 'ipcs -l'
[1631721848.994198] [comp0814:164326:0]            sys.c:618  UCX  ERROR shmget(size=2097152 flags=0xb80) for ucp_am_bufs failed: Operation not permitted, please check shared memory limits by 'ipcs -l'
[1631721848.994574] [comp0814:164330:0]            sys.c:618  UCX  ERROR shmget(size=2097152 flags=0xb80) for ucp_am_bufs failed: Operation not permitted, please check shared memory limits by 'ipcs -l'


           ************************************************************
           *        Program running with 4 parallel MPI-processes     *
           *              working on a common directory               *
           ************************************************************
-------------------------------------------------------------------------------
                                 ORCA SCF
-------------------------------------------------------------------------------

------------
SCF SETTINGS
------------
Hamiltonian:
 Density Functional     Method          .... DFT(GTOs)
 Exchange Functional    Exchange        .... PBE
   PBE kappa parameter   XKappa         ....  0.804000
   PBE mue parameter    XMuePBE         ....  0.219520
 Correlation Functional Correlation     .... PBE
   PBE beta parameter  CBetaPBE         ....  0.066725
 LDA part of GGA corr.  LDAOpt          .... PW91-LDA
 Gradients option       PostSCFGGA      .... off
 Hybrid DFT is turned on
   Fraction HF Exchange ScalHFX         ....  0.250000
   Scaling of DF-GGA-X  ScalDFX         ....  0.750000
   Scaling of DF-GGA-C  ScalDFC         ....  1.000000
   Scaling of DF-LDA-C  ScalLDAC        ....  1.000000
   Perturbative correction              ....  0.000000
   Density functional embedding theory  .... OFF
   NL short-range parameter             ....  6.900000
 RI-approximation to the Coulomb term is turned on
   Number of auxiliary basis functions  .... 333
   RIJ-COSX (HFX calculated with COS-X)).... on


General Settings:
 Integral files         IntName         .... manual_reactants_339_freq
 Hartree-Fock type      HFTyp           .... RHF
 Total Charge           Charge          ....   -1
 Multiplicity           Mult            ....    1
 Number of Electrons    NEL             ....   78
 Basis Dimension        Dim             ....  127
 Nuclear Repulsion      ENuc            ....    365.3162701262 Eh

Convergence Acceleration:
 DIIS                   CNVDIIS         .... on
   Start iteration      DIISMaxIt       ....    12
   Startup error        DIISStart       ....  0.200000
   # of expansion vecs  DIISMaxEq       ....     5
   Bias factor          DIISBfac        ....   1.050
   Max. coefficient     DIISMaxC        ....  10.000
 Newton-Raphson         CNVNR           .... off
 SOSCF                  CNVSOSCF        .... on
   Start iteration      SOSCFMaxIt      ....   150
   Startup grad/error   SOSCFStart      ....  0.003300
 Level Shifting         CNVShift        .... on
   Level shift para.    LevelShift      ....    0.2500
   Turn off err/grad.   ShiftErr        ....    0.0010
 Zerner damping         CNVZerner       .... off
 Static damping         CNVDamp         .... on
   Fraction old density DampFac         ....    0.7000
   Max. Damping (<1)    DampMax         ....    0.9800
   Min. Damping (>=0)   DampMin         ....    0.0000
   Turn off err/grad.   DampErr         ....    0.1000
 Fernandez-Rico         CNVRico         .... off

SCF Procedure:
 Maximum # iterations   MaxIter         ....   250
 SCF integral mode      SCFMode         .... Direct
   Integral package                     .... LIBINT
 Reset frequency        DirectResetFreq ....    20
 Integral Threshold     Thresh          ....  1.000e-10 Eh
 Primitive CutOff       TCut            ....  1.000e-11 Eh

Convergence Tolerance:
 Convergence Check Mode ConvCheckMode   .... Total+1el-Energy
 Convergence forced     ConvForced      .... 0
 Energy Change          TolE            ....  1.000e-06 Eh
 1-El. energy change                    ....  1.000e-03 Eh
 Orbital Gradient       TolG            ....  5.000e-05
 Orbital Rotation angle TolX            ....  5.000e-05
 DIIS Error             TolErr          ....  1.000e-06


Diagonalization of the overlap matrix:
Smallest eigenvalue                        ... 2.571e-03
Time for diagonalization                   ...    0.004 sec
Threshold for overlap eigenvalues          ... 1.000e-08
Number of eigenvalues below threshold      ... 0
Time for construction of square roots      ...    0.001 sec
Total time needed                          ...    0.005 sec

-------------------
DFT GRID GENERATION
-------------------

General Integration Accuracy     IntAcc      ...  4.340
Radial Grid Type                 RadialGrid  ... Gauss-Chebyshev
Angular Grid (max. acc.)         AngularGrid ... Lebedev-110
Angular grid pruning method      GridPruning ... 3 (G Style)
Weight generation scheme         WeightScheme... Becke
Basis function cutoff            BFCut       ...    1.0000e-10
Integration weight cutoff        WCut        ...    1.0000e-14
Grids for H and He will be reduced by one unit

# of grid points (after initial pruning)     ...  15260 (   0.0 sec)
# of grid points (after weights+screening)   ...  14445 (   0.0 sec)
nearest neighbour list constructed           ...    0.0 sec
Grid point re-assignment to atoms done       ...    0.0 sec
Grid point division into batches done        ...    0.0 sec
Reduced shell lists constructed in    0.0 sec

Total number of grid points                  ...    14445
Total number of batches                      ...      233
Average number of points per batch           ...       61
Average number of grid points per atom       ...     1204
Average number of shells per batch           ...    44.30 (75.08%)
Average number of basis functions per batch  ...    94.60 (74.49%)
Average number of large shells per batch     ...    36.87 (83.22%)
Average number of large basis fcns per batch ...    76.67 (81.04%)
Maximum spatial batch extension              ...  17.47, 17.14, 18.68 au
Average spatial batch extension              ...   0.70,  0.70,  0.75 au

Time for grid setup =    0.043 sec

------------------------------
INITIAL GUESS: MODEL POTENTIAL
------------------------------
Loading Hartree-Fock densities                     ... done
Calculating cut-offs                               ... done
Setting up the integral package                    ... done
Initializing the effective Hamiltonian             ... done
Starting the Coulomb interaction                   ... done (   0.0 sec)
Reading the grid                                   ... done
Mapping shells                                     ... done
Starting the XC term evaluation                    ... done (   0.0 sec)
  promolecular density results
     # of electrons  =     77.008920563
     EX              =   -134.010044443
     EC              =     -3.172268968
     EX+EC           =   -137.182313411
Transforming the Hamiltonian                       ... done (   0.0 sec)
Diagonalizing the Hamiltonian                      ... done (   0.0 sec)
Back transforming the eigenvectors                 ... done (   0.0 sec)
Now organizing SCF variables                       ... done
                      ------------------
                      INITIAL GUESS DONE (   0.2 sec)
                      ------------------
--------------------
COSX GRID GENERATION
--------------------

General Integration Accuracy     IntAcc      ...  3.340
Radial Grid Type                 RadialGrid  ... Gauss-Chebyshev
Angular Grid (max. acc.)         AngularGrid ... Lebedev-50
Angular grid pruning method      GridPruning ... 3 (G Style)
Weight generation scheme         WeightScheme... Becke
Basis function cutoff            BFCut       ...    1.0000e-10
Integration weight cutoff        WCut        ...    1.0000e-14
Grids for H and He will be reduced by one unit

# of grid points (after initial pruning)     ...   5728 (   0.0 sec)
# of grid points (after weights+screening)   ...   5417 (   0.0 sec)
nearest neighbour list constructed           ...    0.0 sec
Grid point re-assignment to atoms done       ...    0.0 sec
Grid point division into batches done        ...    0.0 sec
Reduced shell lists constructed in    0.0 sec

Total number of grid points                  ...     5417
Total number of batches                      ...       91
Average number of points per batch           ...       59
Average number of grid points per atom       ...      451
Average number of shells per batch           ...    46.00 (77.97%)
Average number of basis functions per batch  ...    99.33 (78.22%)
Average number of large shells per batch     ...    39.00 (84.78%)
Average number of large basis fcns per batch ...    81.75 (82.30%)
Maximum spatial batch extension              ...  12.14, 15.21, 16.46 au
Average spatial batch extension              ...   0.88,  0.92,  0.96 au

Overlap Fitting                  UseSFitting ... on
Constructing numerical overlap ... done (      0.0 sec)
Inverting numerical overlap    ... done (      0.0 sec)
Obtaining analytic overlap     ... done (      0.0 sec)
Final contraction and storage  ... done (      0.0 sec)


General Integration Accuracy     IntAcc      ...  3.670
Radial Grid Type                 RadialGrid  ... Gauss-Chebyshev
Angular Grid (max. acc.)         AngularGrid ... Lebedev-50
Angular grid pruning method      GridPruning ... 3 (G Style)
Weight generation scheme         WeightScheme... Becke
Basis function cutoff            BFCut       ...    1.0000e-10
Integration weight cutoff        WCut        ...    1.0000e-14
Grids for H and He will be reduced by one unit

# of grid points (after initial pruning)     ...   7222 (   0.0 sec)
# of grid points (after weights+screening)   ...   6805 (   0.0 sec)
nearest neighbour list constructed           ...    0.0 sec
Grid point re-assignment to atoms done       ...    0.0 sec
Grid point division into batches done        ...    0.0 sec
Reduced shell lists constructed in    0.0 sec

Total number of grid points                  ...     6805
Total number of batches                      ...      114
Average number of points per batch           ...       59
Average number of grid points per atom       ...      567
Average number of shells per batch           ...    45.73 (77.51%)
Average number of basis functions per batch  ...    98.40 (77.48%)
Average number of large shells per batch     ...    38.73 (84.69%)
Average number of large basis fcns per batch ...    80.47 (81.78%)
Maximum spatial batch extension              ...  13.21, 15.55, 17.33 au
Average spatial batch extension              ...   0.82,  0.83,  0.87 au

Overlap Fitting                  UseSFitting ... on
Constructing numerical overlap ... done (      0.0 sec)
Inverting numerical overlap    ... done (      0.0 sec)
Obtaining analytic overlap     ... done (      0.0 sec)
Final contraction and storage  ... done (      0.0 sec)


General Integration Accuracy     IntAcc      ...  4.010
Radial Grid Type                 RadialGrid  ... Gauss-Chebyshev
Angular Grid (max. acc.)         AngularGrid ... Lebedev-110
Angular grid pruning method      GridPruning ... 3 (G Style)
Weight generation scheme         WeightScheme... Becke
Basis function cutoff            BFCut       ...    1.0000e-10
Integration weight cutoff        WCut        ...    1.0000e-14
Grids for H and He will be reduced by one unit

# of grid points (after initial pruning)     ...  13318 (   0.0 sec)
# of grid points (after weights+screening)   ...  12630 (   0.0 sec)
nearest neighbour list constructed           ...    0.0 sec
Grid point re-assignment to atoms done       ...    0.0 sec
Grid point division into batches done        ...    0.0 sec
Reduced shell lists constructed in    0.0 sec

Total number of grid points                  ...    12630
Total number of batches                      ...      203
Average number of points per batch           ...       62
Average number of grid points per atom       ...     1052
Average number of shells per batch           ...    44.94 (76.17%)
Average number of basis functions per batch  ...    96.40 (75.91%)
Average number of large shells per batch     ...    37.88 (84.30%)
Average number of large basis fcns per batch ...    79.23 (82.19%)
Maximum spatial batch extension              ...  13.20, 16.10, 15.32 au
Average spatial batch extension              ...   0.68,  0.70,  0.70 au

Overlap Fitting                  UseSFitting ... on
Constructing numerical overlap ... done (      0.0 sec)
Inverting numerical overlap    ... done (      0.0 sec)
Obtaining analytic overlap     ... done (      0.0 sec)
Final contraction and storage  ... done (      0.0 sec)

Time for X-Grid setup             =    0.148 sec

--------------------
CPCM SOLVATION MODEL
--------------------
CPCM parameters:
  Epsilon                                         ...      20.7000
  Refrac                                          ...       1.3590
  Rsolv                                           ...       1.3000
  Surface type                                    ...    GEPOL SES
  Epsilon function type                           ...         CPCM
Radii:
 Radius for C  used is    3.7795 Bohr (=   2.0000 Ang.)
 Radius for Br used is    4.0818 Bohr (=   2.1600 Ang.)
 Radius for H  used is    2.4566 Bohr (=   1.3000 Ang.)
 Radius for Cl used is    3.8739 Bohr (=   2.0500 Ang.)
Calculating surface                               ...        done! (  0.0s)
GEPOL surface points                              ...          495
GEPOL Volume                                      ...     969.2541
GEPOL Surface-area                                ...     564.3918
Calculating surface distance matrix               ...        done! (  0.0s)
Performing Cholesky decomposition & store         ...        done! (  0.0s)
Overall time for CPCM initialization              ...                 0.0s
--------------
SCF ITERATIONS
--------------
ITER       Energy         Delta-E        Max-DP      RMS-DP      [F,P]     Damp
               ***  Starting incremental Fock matrix formation  ***
  0  -3151.7684134702   0.000000000000 0.10629982  0.00257978  0.1573345 0.7000
  1  -3151.8350130246  -0.066599554331 0.07449499  0.00194217  0.0904362 0.7000
                               ***Turning on DIIS***
  2  -3151.8651649013  -0.030151876698 0.13437279  0.00374884  0.0484821 0.0000
  3  -3151.9088599604  -0.043695059145 0.04041482  0.00113020  0.0440572 0.0000
  4  -3151.9192363929  -0.010376432450 0.01898763  0.00039046  0.0108159 0.0000
                      *** Initiating the SOSCF procedure ***
                           *** Shutting down DIIS ***
                      *** Re-Reading the Fockian *** 
                      *** Removing any level shift *** 
ITER      Energy       Delta-E        Grad      Rot      Max-DP    RMS-DP
  5  -3151.91973936  -0.0005029713  0.000602  0.000602  0.002345  0.000093
               *** Restarting incremental Fock matrix formation ***
  6  -3151.91976379  -0.0000244268  0.000279  0.000521  0.001250  0.000060
  7  -3151.91976465  -0.0000008623  0.000233  0.000159  0.000686  0.000016
  8  -3151.91976630  -0.0000016463  0.000036  0.000030  0.000161  0.000004
  9  -3151.91976619   0.0000001067  0.000026  0.000021  0.000058  0.000002
                 **** Energy Check signals convergence ****
              ***Rediagonalizing the Fockian in SOSCF/NRSCF***

               *****************************************************
               *                     SUCCESS                       *
               *           SCF CONVERGED AFTER  10 CYCLES          *
               *****************************************************

Setting up the final grid:

General Integration Accuracy     IntAcc      ...  4.670
Radial Grid Type                 RadialGrid  ... Gauss-Chebyshev
Angular Grid (max. acc.)         AngularGrid ... Lebedev-302
Angular grid pruning method      GridPruning ... 3 (G Style)
Weight generation scheme         WeightScheme... Becke
Basis function cutoff            BFCut       ...    1.0000e-10
Integration weight cutoff        WCut        ...    1.0000e-14
Grids for H and He will be reduced by one unit

# of grid points (after initial pruning)     ...  58748 (   0.0 sec)
# of grid points (after weights+screening)   ...  55064 (   0.0 sec)
nearest neighbour list constructed           ...    0.0 sec
Grid point re-assignment to atoms done       ...    0.0 sec
Grid point division into batches done        ...    0.2 sec
Reduced shell lists constructed in    0.2 sec

Total number of grid points                  ...    55064
Total number of batches                      ...      867
Average number of points per batch           ...       63
Average number of grid points per atom       ...     4589
Average number of shells per batch           ...    41.69 (70.66%)
Average number of basis functions per batch  ...    88.12 (69.39%)
Average number of large shells per batch     ...    34.42 (82.57%)
Average number of large basis fcns per batch ...    71.13 (80.72%)
Maximum spatial batch extension              ...  18.46, 17.06, 17.79 au
Average spatial batch extension              ...   0.51,  0.51,  0.52 au

Final grid set up in    0.3 sec
Final integration                            ... done (   0.1 sec)
Change in XC energy                          ...     0.000950364
Integrated number of electrons               ...    77.999915152
Previous integrated no of electrons          ...    78.006665360
Old exchange energy                            =    -33.855105381 Eh
New exchange energy                            =    -33.854528126 Eh
Exchange energy change after final integration =      0.000577255 Eh
Total energy after final integration           =  -3151.918238671 Eh
Final COS-X integration done in                =     0.588 sec

----------------
TOTAL SCF ENERGY
----------------

Total Energy       :        -3151.91823867 Eh          -85768.05564 eV

Components:
Nuclear Repulsion  :          365.31627013 Eh            9940.76109 eV
Electronic Energy  :        -3517.23450880 Eh          -95708.81673 eV
One Electron Energy:        -5117.91048790 Eh         -139265.42449 eV
Two Electron Energy:         1600.67597911 Eh           43556.60777 eV
CPCM Dielectric    :           -0.09890808 Eh              -2.69143 eV

Virial components:
Potential Energy   :        -6299.05741540 Eh         -171406.06639 eV
Kinetic Energy     :         3147.13917673 Eh           85638.01075 eV
Virial Ratio       :            2.00151854


DFT components:
N(Alpha)           :       38.999957576205 electrons
N(Beta)            :       38.999957576205 electrons
N(Total)           :       77.999915152409 electrons
E(X)               :     -101.075639760605 Eh       
E(C)               :       -3.224812197883 Eh       
E(XC)              :     -104.300451958488 Eh       
DFET-embed. en.    :        0.000000000000 Eh       
CPCM Solvation Model Properties:
Surface-charge          :            0.97963838
Charge-correction       :           -0.00291273 Eh              -0.07926 eV
Free-energy (cav+disp)  :            0.00380873 Eh               0.10364 eV
Corrected G(solv)       :        -3151.91734268 Eh          -85768.03126 eV

---------------
SCF CONVERGENCE
---------------

  Last Energy change         ...   -9.7742e-08  Tolerance :   1.0000e-06
  Last MAX-Density change    ...    4.8850e-15  Tolerance :   1.0000e-05
  Last RMS-Density change    ...    1.0508e-16  Tolerance :   1.0000e-06
  Last Orbital Gradient      ...    3.7030e-06  Tolerance :   5.0000e-05
  Last Orbital Rotation      ...    7.2514e-06  Tolerance :   5.0000e-05

             **** THE GBW FILE WAS UPDATED (manual_reactants_339_freq.gbw) ****
             **** DENSITY FILE WAS UPDATED (manual_reactants_339_freq.scfp) ****
             **** ENERGY FILE WAS UPDATED (manual_reactants_339_freq.en.tmp) ****
             **** THE GBW FILE WAS UPDATED (manual_reactants_339_freq.gbw) ****
             **** DENSITY FILE WAS UPDATED (manual_reactants_339_freq.scfp) ****
----------------
ORBITAL ENERGIES
----------------

  NO   OCC          E(Eh)            E(eV) 
   0   2.0000    -483.165231    -13147.5944 
   1   2.0000    -101.520916     -2762.5246 
   2   2.0000     -62.601505     -1703.4735 
   3   2.0000     -56.390575     -1534.4656 
   4   2.0000     -56.388514     -1534.4095 
   5   2.0000     -56.388340     -1534.4048 
   6   2.0000     -10.280827      -279.7555 
   7   2.0000     -10.215494      -277.9777 
   8   2.0000     -10.213032      -277.9107 
   9   2.0000      -9.368000      -254.9162 
  10   2.0000      -8.746698      -238.0098 
  11   2.0000      -7.103816      -193.3047 
  12   2.0000      -7.103747      -193.3028 
  13   2.0000      -7.103488      -193.2957 
  14   2.0000      -6.560345      -178.5161 
  15   2.0000      -6.549185      -178.2124 
  16   2.0000      -6.549133      -178.2110 
  17   2.0000      -2.646031       -72.0022 
  18   2.0000      -2.642946       -71.9182 
  19   2.0000      -2.642829       -71.9150 
  20   2.0000      -2.633832       -71.6702 
  21   2.0000      -2.633807       -71.6695 
  22   2.0000      -0.833902       -22.6916 
  23   2.0000      -0.739230       -20.1155 
  24   2.0000      -0.691026       -18.8038 
  25   2.0000      -0.670005       -18.2318 
  26   2.0000      -0.573705       -15.6113 
  27   2.0000      -0.466328       -12.6894 
  28   2.0000      -0.446991       -12.1633 
  29   2.0000      -0.416450       -11.3322 
  30   2.0000      -0.385193       -10.4816 
  31   2.0000      -0.356229        -9.6935 
  32   2.0000      -0.355819        -9.6823 
  33   2.0000      -0.330834        -9.0024 
  34   2.0000      -0.279113        -7.5950 
  35   2.0000      -0.278924        -7.5899 
  36   2.0000      -0.212659        -5.7867 
  37   2.0000      -0.212147        -5.7728 
  38   2.0000      -0.209151        -5.6913 
  39   0.0000       0.019017         0.5175 
  40   0.0000       0.100484         2.7343 
  41   0.0000       0.125921         3.4265 
  42   0.0000       0.135069         3.6754 
  43   0.0000       0.155335         4.2269 
  44   0.0000       0.180225         4.9042 
  45   0.0000       0.195273         5.3137 
  46   0.0000       0.205013         5.5787 
  47   0.0000       0.217010         5.9051 
  48   0.0000       0.249977         6.8022 
  49   0.0000       0.338749         9.2178 
  50   0.0000       0.411510        11.1978 
  51   0.0000       0.413290        11.2462 
  52   0.0000       0.433319        11.7912 
  53   0.0000       0.441090        12.0027 
  54   0.0000       0.489866        13.3299 
  55   0.0000       0.542282        14.7562 
  56   0.0000       0.553392        15.0586 
  57   0.0000       0.572449        15.5771 
  58   0.0000       0.587642        15.9906 
  59   0.0000       0.595987        16.2176 
  60   0.0000       0.614709        16.7271 
  61   0.0000       0.645900        17.5758 
  62   0.0000       0.659995        17.9594 
  63   0.0000       0.684268        18.6199 
  64   0.0000       0.690049        18.7772 
  65   0.0000       0.693098        18.8602 
  66   0.0000       0.703350        19.1391 
  67   0.0000       0.706313        19.2198 
  68   0.0000       0.717854        19.5338 
  69   0.0000       0.719714        19.5844 
  70   0.0000       0.732764        19.9395 
  71   0.0000       0.772922        21.0323 
  72   0.0000       0.792201        21.5569 
  73   0.0000       0.819276        22.2936 
  74   0.0000       0.847610        23.0646 
  75   0.0000       0.923172        25.1208 
  76   0.0000       0.923440        25.1281 
  77   0.0000       0.925492        25.1839 
  78   0.0000       0.943240        25.6669 
  79   0.0000       0.950575        25.8665 
  80   0.0000       1.001919        27.2636 
  81   0.0000       1.042019        28.3548 
  82   0.0000       1.058324        28.7985 
  83   0.0000       1.091924        29.7128 
  84   0.0000       1.119276        30.4571 
  85   0.0000       1.176246        32.0073 
  86   0.0000       1.187599        32.3162 
  87   0.0000       1.241067        33.7712 
  88   0.0000       1.315808        35.8049 
  89   0.0000       1.523447        41.4551 
  90   0.0000       1.550188        42.1828 
  91   0.0000       1.554788        42.3079 
  92   0.0000       1.561281        42.4846 
  93   0.0000       1.633236        44.4426 
  94   0.0000       1.761596        47.9355 
  95   0.0000       1.778064        48.3836 
  96   0.0000       1.793748        48.8104 
  97   0.0000       1.818914        49.4952 
  98   0.0000       1.833280        49.8861 
  99   0.0000       1.855422        50.4886 
 100   0.0000       1.866229        50.7827 
 101   0.0000       1.891440        51.4687 
 102   0.0000       1.924087        52.3571 
 103   0.0000       1.969760        53.5999 
 104   0.0000       2.040326        55.5201 
 105   0.0000       2.168469        59.0070 
 106   0.0000       2.170658        59.0666 
 107   0.0000       2.268903        61.7400 
 108   0.0000       2.278350        61.9971 
 109   0.0000       2.393671        65.1351 
 110   0.0000       2.409610        65.5688 
 111   0.0000       2.493224        67.8441 
 112   0.0000       2.590102        70.4803 
 113   0.0000       2.606596        70.9291 
 114   0.0000       2.625196        71.4352 
 115   0.0000       2.760341        75.1127 
 116   0.0000       2.880597        78.3850 
 117   0.0000       2.927583        79.6636 
 118   0.0000       2.935728        79.8852 
 119   0.0000       3.007957        81.8507 
 120   0.0000       3.031312        82.4862 
 121   0.0000       3.060200        83.2723 
 122   0.0000       3.495150        95.1079 
 123   0.0000       3.507574        95.4459 
 124   0.0000       3.603417        98.0540 
 125   0.0000       3.619181        98.4829 
 126   0.0000       3.832810       104.2961 

                    ********************************
                    * MULLIKEN POPULATION ANALYSIS *
                    ********************************

-----------------------
MULLIKEN ATOMIC CHARGES
-----------------------
   0 C :   -0.033796
   1 C :   -0.233691
   2 C :   -0.027460
   3 Br:   -0.223104
   4 H :    0.049678
   5 H :    0.047561
   6 H :    0.029876
   7 H :    0.100185
   8 H :    0.050241
   9 H :    0.029243
  10 H :    0.050681
  11 Cl:   -0.839412
Sum of atomic charges:   -1.0000000

--------------------------------
MULLIKEN REDUCED ORBITAL CHARGES
--------------------------------
  0 C s       :     3.020905  s :     3.020905
      pz      :     1.031484  p :     2.986594
      px      :     0.933082
      py      :     1.022028
      dz2     :     0.003465  d :     0.026297
      dxz     :     0.005459
      dyz     :     0.006992
      dx2y2   :     0.005029
      dxy     :     0.005352
  1 C s       :     3.242600  s :     3.242600
      pz      :     0.954399  p :     2.944350
      px      :     0.982442
      py      :     1.007508
      dz2     :     0.005848  d :     0.046742
      dxz     :     0.009168
      dyz     :     0.012094
      dx2y2   :     0.009498
      dxy     :     0.010133
  2 C s       :     3.019421  s :     3.019421
      pz      :     1.021034  p :     2.981638
      px      :     1.008322
      py      :     0.952282
      dz2     :     0.002653  d :     0.026402
      dxz     :     0.005626
      dyz     :     0.007400
      dx2y2   :     0.005465
      dxy     :     0.005258
  3 Brs       :     7.968834  s :     7.968834
      pz      :     5.659590  p :    17.217860
      px      :     5.767614
      py      :     5.790656
      dz2     :     2.006453  d :    10.036410
      dxz     :     2.010322
      dyz     :     2.009137
      dx2y2   :     2.003903
      dxy     :     2.006595
  4 H s       :     0.926748  s :     0.926748
      pz      :     0.005795  p :     0.023574
      px      :     0.006031
      py      :     0.011748
  5 H s       :     0.928863  s :     0.928863
      pz      :     0.011001  p :     0.023576
      px      :     0.003920
      py      :     0.008655
  6 H s       :     0.943129  s :     0.943129
      pz      :     0.012552  p :     0.026995
      px      :     0.007001
      py      :     0.007442
  7 H s       :     0.878470  s :     0.878470
      pz      :     0.009981  p :     0.021346
      px      :     0.003196
      py      :     0.008169
  8 H s       :     0.926213  s :     0.926213
      pz      :     0.006485  p :     0.023546
      px      :     0.012523
      py      :     0.004538
  9 H s       :     0.944243  s :     0.944243
      pz      :     0.010336  p :     0.026514
      px      :     0.009786
      py      :     0.006392
 10 H s       :     0.925749  s :     0.925749
      pz      :     0.010633  p :     0.023571
      px      :     0.005008
      py      :     0.007930
 11 Cls       :     5.989622  s :     5.989622
      pz      :     3.927637  p :    11.849397
      px      :     3.940522
      py      :     3.981238
      dz2     :     0.000123  d :     0.000393
      dxz     :     0.000089
      dyz     :     0.000105
      dx2y2   :     0.000068
      dxy     :     0.000007


                     *******************************
                     * LOEWDIN POPULATION ANALYSIS *
                     *******************************

----------------------
LOEWDIN ATOMIC CHARGES
----------------------
   0 C :   -0.093505
   1 C :   -0.065537
   2 C :   -0.089511
   3 Br:   -0.075597
   4 H :    0.028889
   5 H :    0.029336
   6 H :    0.012275
   7 H :    0.037322
   8 H :    0.030290
   9 H :    0.016769
  10 H :    0.030448
  11 Cl:   -0.861180

-------------------------------
LOEWDIN REDUCED ORBITAL CHARGES
-------------------------------
  0 C s       :     2.851422  s :     2.851422
      pz      :     1.073140  p :     3.171727
      px      :     1.026087
      py      :     1.072500
      dz2     :     0.008969  d :     0.070356
      dxz     :     0.014796
      dyz     :     0.018283
      dx2y2   :     0.014276
      dxy     :     0.014032
  1 C s       :     2.913507  s :     2.913507
      pz      :     0.987169  p :     3.049130
      px      :     1.018289
      py      :     1.043673
      dz2     :     0.012579  d :     0.102900
      dxz     :     0.019802
      dyz     :     0.027193
      dx2y2   :     0.021173
      dxy     :     0.022154
  2 C s       :     2.850620  s :     2.850620
      pz      :     1.075796  p :     3.168380
      px      :     1.057131
      py      :     1.035454
      dz2     :     0.006841  d :     0.070511
      dxz     :     0.014875
      dyz     :     0.019841
      dx2y2   :     0.014311
      dxy     :     0.014644
  3 Brs       :     7.840678  s :     7.840678
      pz      :     5.656839  p :    17.187242
      px      :     5.751966
      py      :     5.778437
      dz2     :     2.007803  d :    10.047677
      dxz     :     2.013489
      dyz     :     2.012339
      dx2y2   :     2.004945
      dxy     :     2.009100
  4 H s       :     0.904123  s :     0.904123
      pz      :     0.015400  p :     0.066988
      px      :     0.018856
      py      :     0.032731
  5 H s       :     0.903784  s :     0.903784
      pz      :     0.030557  p :     0.066880
      px      :     0.012451
      py      :     0.023872
  6 H s       :     0.909128  s :     0.909128
      pz      :     0.036097  p :     0.078596
      px      :     0.022034
      py      :     0.020466
  7 H s       :     0.891654  s :     0.891654
      pz      :     0.032535  p :     0.071024
      px      :     0.012986
      py      :     0.025503
  8 H s       :     0.902984  s :     0.902984
      pz      :     0.017939  p :     0.066726
      px      :     0.035150
      py      :     0.013637
  9 H s       :     0.907781  s :     0.907781
      pz      :     0.029533  p :     0.075450
      px      :     0.026746
      py      :     0.019171
 10 H s       :     0.902700  s :     0.902700
      pz      :     0.029730  p :     0.066852
      px      :     0.013131
      py      :     0.023991
 11 Cls       :     5.985073  s :     5.985073
      pz      :     3.938373  p :    11.875688
      px      :     3.953054
      py      :     3.984261
      dz2     :     0.000136  d :     0.000419
      dxz     :     0.000090
      dyz     :     0.000108
      dx2y2   :     0.000079
      dxy     :     0.000006


                      *****************************
                      * MAYER POPULATION ANALYSIS *
                      *****************************

  NA   - Mulliken gross atomic population
  ZA   - Total nuclear charge
  QA   - Mulliken gross atomic charge
  VA   - Mayer's total valence
  BVA  - Mayer's bonded valence
  FA   - Mayer's free valence

  ATOM       NA         ZA         QA         VA         BVA        FA
  0 C      6.0338     6.0000    -0.0338     3.8295     3.8295    -0.0000
  1 C      6.2337     6.0000    -0.2337     4.0511     4.0511     0.0000
  2 C      6.0275     6.0000    -0.0275     3.8377     3.8377     0.0000
  3 Br    35.2231    35.0000    -0.2231     0.9879     0.9879    -0.0000
  4 H      0.9503     1.0000     0.0497     0.9904     0.9904     0.0000
  5 H      0.9524     1.0000     0.0476     0.9951     0.9951     0.0000
  6 H      0.9701     1.0000     0.0299     1.1158     1.1158     0.0000
  7 H      0.8998     1.0000     0.1002     0.9596     0.9596     0.0000
  8 H      0.9498     1.0000     0.0502     0.9898     0.9898     0.0000
  9 H      0.9708     1.0000     0.0292     1.1036     1.1036     0.0000
 10 H      0.9493     1.0000     0.0507     0.9950     0.9950     0.0000
 11 Cl    17.8394    17.0000    -0.8394     0.3106     0.3106     0.0000

  Mayer bond orders larger than 0.100000
B(  0-C ,  1-C ) :   1.0488 B(  0-C ,  4-H ) :   0.9624 B(  0-C ,  5-H ) :   0.9645 
B(  0-C ,  6-H ) :   0.9079 B(  1-C ,  2-C ) :   1.0475 B(  1-C ,  3-Br) :   0.9504 
B(  1-C ,  7-H ) :   0.9323 B(  2-C ,  8-H ) :   0.9629 B(  2-C ,  9-H ) :   0.9168 
B(  2-C , 10-H ) :   0.9637 B(  6-H , 11-Cl) :   0.1758 B(  9-H , 11-Cl) :   0.1549 



------------------
HIRSHFELD ANALYSIS
------------------

Total integrated alpha density =     39.003332680
Total integrated beta density  =     39.003332680

  ATOM     CHARGE      SPIN    
   0 C   -0.091876    0.000000
   1 C    0.049622    0.000000
   2 C   -0.088158    0.000000
   3 Br  -0.195689    0.000000
   4 H    0.025458    0.000000
   5 H    0.024944    0.000000
   6 H    0.009842    0.000000
   7 H    0.039623    0.000000
   8 H    0.026803    0.000000
   9 H    0.013177    0.000000
  10 H    0.026970    0.000000
  11 Cl  -0.847381    0.000000

  TOTAL  -1.006665    0.000000

-------
TIMINGS
-------

Total SCF time: 0 days 0 hours 0 min 7 sec 

Total time                  ....       7.816 sec
Sum of individual times     ....       7.688 sec  ( 98.4%)

Fock matrix formation       ....       7.049 sec  ( 90.2%)
  Split-RI-J                ....       1.101 sec  ( 15.6% of F)
  Chain of spheres X        ....       3.587 sec  ( 50.9% of F)
  COS-X 1 center corr.      ....       0.000 sec  (  0.0% of F)
  XC integration            ....       0.422 sec  (  6.0% of F)
    Basis function eval.    ....       0.168 sec  ( 39.8% of XC)
    Density eval.           ....       0.071 sec  ( 16.9% of XC)
    XC-Functional eval.     ....       0.041 sec  (  9.8% of XC)
    XC-Potential eval.      ....       0.107 sec  ( 25.4% of XC)
Diagonalization             ....       0.011 sec  (  0.1%)
Density matrix formation    ....       0.002 sec  (  0.0%)
Population analysis         ....       0.032 sec  (  0.4%)
Initial guess               ....       0.114 sec  (  1.5%)
Orbital Transformation      ....       0.000 sec  (  0.0%)
Orbital Orthonormalization  ....       0.000 sec  (  0.0%)
DIIS solution               ....       0.003 sec  (  0.0%)
SOSCF solution              ....       0.005 sec  (  0.1%)
Grid generation             ....       0.470 sec  (  6.0%)


-------------------------------------------------------------------------------
                          DFT DISPERSION CORRECTION                            
                                                                               
                              DFTD3 V3.1  Rev 1                                
                          USING Becke-Johnson damping                          
-------------------------------------------------------------------------------
The PBE0 functional is recognized
Active option DFTDOPT                   ...         4   

molecular C6(AA) [au] = 2272.397979 


            DFT-D V3
 parameters
 s6 scaling factor         :     1.0000 
 a1 scaling factor         :     0.4145 
 s8 scaling factor         :     1.2177 
 a2 scaling factor         :     4.8593 
 ad hoc parameters k1-k3   :    16.0000     1.3333    -4.0000 

 Edisp/kcal,au: -5.733800805517  -0.009137392232 
 E6   /kcal   :  -3.491564181 
 E8   /kcal   :  -2.242236624 
 % E8         :  39.105589820 

-------------------------   ----------------
Dispersion correction           -0.009137392
-------------------------   ----------------


-------------------------   --------------------
FINAL SINGLE POINT ENERGY     -3151.927376063491
-------------------------   --------------------


                            ***************************************
                            *     ORCA property calculations      *
                            ***************************************

                                    ---------------------
                                    Active property flags
                                    ---------------------
   (+) Dipole Moment


------------------------------------------------------------------------------
                       ORCA ELECTRIC PROPERTIES CALCULATION
------------------------------------------------------------------------------

Dipole Moment Calculation                       ... on
Quadrupole Moment Calculation                   ... off
Polarizability Calculation                      ... off
GBWName                                         ... manual_reactants_339_freq.gbw
Electron density file                           ... manual_reactants_339_freq.scfp
The origin for moment calculation is the CENTER OF MASS  = ( 0.087526, -0.413554 -0.460815)

-------------
DIPOLE MOMENT
-------------
                                X             Y             Z
Electronic contribution:    -12.57299      14.44773     -12.42469
Nuclear contribution   :      9.48063     -11.93762       8.78957
                        -----------------------------------------
Total Dipole Moment    :     -3.09237       2.51012      -3.63512
                        -----------------------------------------
Magnitude (a.u.)       :      5.39236
Magnitude (Debye)      :     13.70629



--------------------
Rotational spectrum 
--------------------
 
Rotational constants in cm-1:     0.238877     0.019489     0.018658 
Rotational constants in MHz :  7161.342861   584.265942   559.350211 

 Dipole components along the rotational axes: 
x,y,z [a.u.] :     5.386028    -0.071477     0.251267 
x,y,z [Debye]:    13.690196    -0.181679     0.638670 

 
[1631721857.793063] [comp0814:164463:0]            sys.c:618  UCX  ERROR shmget(size=2097152 flags=0xfb0) for mm_recv_desc failed: Operation not permitted, please check shared memory limits by 'ipcs -l'
[1631721857.793754] [comp0814:164462:0]            sys.c:618  UCX  ERROR shmget(size=2097152 flags=0xfb0) for mm_recv_desc failed: Operation not permitted, please check shared memory limits by 'ipcs -l'
[1631721857.798343] [comp0814:164461:0]            sys.c:618  UCX  ERROR shmget(size=2097152 flags=0xfb0) for mm_recv_desc failed: Operation not permitted, please check shared memory limits by 'ipcs -l'
[1631721857.804995] [comp0814:164460:0]            sys.c:618  UCX  ERROR shmget(size=2097152 flags=0xfb0) for mm_recv_desc failed: Operation not permitted, please check shared memory limits by 'ipcs -l'
[1631721857.814906] [comp0814:164461:0]            sys.c:618  UCX  ERROR shmget(size=2097152 flags=0xb80) for ucp_am_bufs failed: Operation not permitted, please check shared memory limits by 'ipcs -l'
[1631721857.815188] [comp0814:164460:0]            sys.c:618  UCX  ERROR shmget(size=2097152 flags=0xb80) for ucp_am_bufs failed: Operation not permitted, please check shared memory limits by 'ipcs -l'
[1631721857.815543] [comp0814:164463:0]            sys.c:618  UCX  ERROR shmget(size=2097152 flags=0xb80) for ucp_am_bufs failed: Operation not permitted, please check shared memory limits by 'ipcs -l'
[1631721857.815851] [comp0814:164462:0]            sys.c:618  UCX  ERROR shmget(size=2097152 flags=0xb80) for ucp_am_bufs failed: Operation not permitted, please check shared memory limits by 'ipcs -l'


           ************************************************************
           *        Program running with 4 parallel MPI-processes     *
           *              working on a common directory               *
           ************************************************************

-------------------------------------------------------------------------------
                               ORCA SCF HESSIAN
-------------------------------------------------------------------------------

Hessian of the Kohn-Sham DFT energy:
Kohn-Sham wavefunction type                      ... RKS
Hartree-Fock exchange scaling                    ...    0.250
Number of operators                              ...    1
Number of atoms                                  ...   12
Basis set dimensions                             ...  127
Integral neglect threshold                       ... 1.0e-10
Integral primitive cutoff                        ... 1.0e-11

Setting up DFT Hessian calculations              ... 
Electron density on the grid                     ... found on disk
Electron density on the final grid               ... found on disk
Building xc-kernel on the grid                   ... done   (      0.0 sec)
Building xc-kernel on the final grid             ... done   (      0.0 sec)
                                                     done   (      0.1 sec)

Nuclear repulsion Hessian                        ... done   (      0.0 sec)

----------------------------------------------
Forming right-hand sides of CP-SCF equations     ...
----------------------------------------------
One electron integral derivatives                ... done   (      3.7 sec)
Transforming the overlap derivative matrices     ... done   (      0.0 sec)
[1631721862.519409] [comp0814:164462:0]            sys.c:618  UCX  ERROR shmget(size=6291456 flags=0xfb0) for mm_recv_desc failed: Operation not permitted, please check shared memory limits by 'ipcs -l'
[1631721862.520920] [comp0814:164463:0]            sys.c:618  UCX  ERROR shmget(size=6291456 flags=0xfb0) for mm_recv_desc failed: Operation not permitted, please check shared memory limits by 'ipcs -l'
[1631721862.522650] [comp0814:164460:0]            sys.c:618  UCX  ERROR shmget(size=6291456 flags=0xfb0) for mm_recv_desc failed: Operation not permitted, please check shared memory limits by 'ipcs -l'
[1631721862.526754] [comp0814:164461:0]            sys.c:618  UCX  ERROR shmget(size=6291456 flags=0xfb0) for mm_recv_desc failed: Operation not permitted, please check shared memory limits by 'ipcs -l'
Adding tr(S(x)F(y) C-PCM term to the hessian     ... done   (      0.6 sec)
Making the Q(x) pseudodensities                  ... done   (      0.0 sec)
Adding the E*S(x)*S(y) terms to the Hessian      ... done   (      0.0 sec)
Calculating energy weighted overlap derivatives  ... done   (      0.0 sec)
Two electron integral derivatives (RI)           ... done   (      1.9 sec)
Exchange-correlation integral derivatives        ... done   (      3.7 sec)
tr(F(y)Q(x)) contribution to the Hessian         ... done   (      0.0 sec)
Response fock operator R(S(x)) (RIJCOSX)         ... done   (      2.0 sec)
XC Response fock operator R(S(x))                ... done   (      1.2 sec)
tr(F(y)S(x)) contribution to the Hessian         ... done   (      0.0 sec)
Transforming and finalizing RHSs                 ... done   (      0.0 sec)

----------------------------------------------
Solving the CP-SCF equations (RIJCOSX)           ...
----------------------------------------------
     CP-SCF ITERATION   0: 
     CP-SCF ITERATION   1:      0.000815895162
     CP-SCF ITERATION   2:      0.000056903195
     CP-SCF ITERATION   3:      0.000005874919
     CP-SCF ITERATION   4:      0.000000876924

                                                 ... done   (      8.8 sec)
Forming perturbed density Hessian contributions  ... done   (      0.0 sec)
Calculating [Q*(d^2 A/dXdY)*Q  ] C-PCM term      ... done   (      0.0 sec)
Calculating [d^2(V_N)/(dXdY)*Q ] C-PCM term      ... done   (      0.0 sec)
Calculating [d^2(V_el)/(dXdY)*Q] C-PCM term      ... done   (      0.3 sec)
Calculating C-PCM term that depends on dQ/dX     ... done   (      0.0 sec)
2nd integral derivative contribs (RI)            ... done   (      8.3 sec)
Exchange-correlation Hessian                     ... done   (      3.3 sec)
Dispersion correction in the Hessian             ... done   (      0.5 sec)
Dipol derivatives                                ... done   (      0.2 sec)

Total SCF Hessian time: 0 days 0 hours 0 min 35 sec 

Writing the Hessian file to the disk             ... done


Maximum memory used throughout the entire calculation: 137.7 MB

-----------------------
VIBRATIONAL FREQUENCIES
-----------------------

Scaling factor for frequencies =  1.000000000  (already applied!)

   0:         0.00 cm**-1
   1:         0.00 cm**-1
   2:         0.00 cm**-1
   3:         0.00 cm**-1
   4:         0.00 cm**-1
   5:         0.00 cm**-1
   6:       -27.24 cm**-1 ***imaginary mode***
   7:        79.99 cm**-1
   8:       105.54 cm**-1
   9:       281.12 cm**-1
  10:       288.41 cm**-1
  11:       307.64 cm**-1
  12:       333.10 cm**-1
  13:       406.85 cm**-1
  14:       533.31 cm**-1
  15:       907.53 cm**-1
  16:       937.29 cm**-1
  17:       963.28 cm**-1
  18:      1052.98 cm**-1
  19:      1160.34 cm**-1
  20:      1170.76 cm**-1
  21:      1224.59 cm**-1
  22:      1337.23 cm**-1
  23:      1385.07 cm**-1
  24:      1387.33 cm**-1
  25:      1434.95 cm**-1
  26:      1454.14 cm**-1
  27:      1457.54 cm**-1
  28:      1464.51 cm**-1
  29:      3009.73 cm**-1
  30:      3020.02 cm**-1
  31:      3123.97 cm**-1
  32:      3128.24 cm**-1
  33:      3137.12 cm**-1
  34:      3159.50 cm**-1
  35:      3163.00 cm**-1


------------
NORMAL MODES
------------

These modes are the Cartesian displacements weighted by the diagonal matrix
M(i,i)=1/sqrt(m[i]) where m[i] is the mass of the displaced atom
Thus, these vectors are normalized but *not* orthogonal

                  0          1          2          3          4          5    
      0       0.000000   0.000000   0.000000   0.000000   0.000000   0.000000
      1       0.000000   0.000000   0.000000   0.000000   0.000000   0.000000
      2       0.000000   0.000000   0.000000   0.000000   0.000000   0.000000
      3       0.000000   0.000000   0.000000   0.000000   0.000000   0.000000
      4       0.000000   0.000000   0.000000   0.000000   0.000000   0.000000
      5       0.000000   0.000000   0.000000   0.000000   0.000000   0.000000
      6       0.000000   0.000000   0.000000   0.000000   0.000000   0.000000
      7       0.000000   0.000000   0.000000   0.000000   0.000000   0.000000
      8       0.000000   0.000000   0.000000   0.000000   0.000000   0.000000
      9       0.000000   0.000000   0.000000   0.000000   0.000000   0.000000
     10       0.000000   0.000000   0.000000   0.000000   0.000000   0.000000
     11       0.000000   0.000000   0.000000   0.000000   0.000000   0.000000
     12       0.000000   0.000000   0.000000   0.000000   0.000000   0.000000
     13       0.000000   0.000000   0.000000   0.000000   0.000000   0.000000
     14       0.000000   0.000000   0.000000   0.000000   0.000000   0.000000
     15       0.000000   0.000000   0.000000   0.000000   0.000000   0.000000
     16       0.000000   0.000000   0.000000   0.000000   0.000000   0.000000
     17       0.000000   0.000000   0.000000   0.000000   0.000000   0.000000
     18       0.000000   0.000000   0.000000   0.000000   0.000000   0.000000
     19       0.000000   0.000000   0.000000   0.000000   0.000000   0.000000
     20       0.000000   0.000000   0.000000   0.000000   0.000000   0.000000
     21       0.000000   0.000000   0.000000   0.000000   0.000000   0.000000
     22       0.000000   0.000000   0.000000   0.000000   0.000000   0.000000
     23       0.000000   0.000000   0.000000   0.000000   0.000000   0.000000
     24       0.000000   0.000000   0.000000   0.000000   0.000000   0.000000
     25       0.000000   0.000000   0.000000   0.000000   0.000000   0.000000
     26       0.000000   0.000000   0.000000   0.000000   0.000000   0.000000
     27       0.000000   0.000000   0.000000   0.000000   0.000000   0.000000
     28       0.000000   0.000000   0.000000   0.000000   0.000000   0.000000
     29       0.000000   0.000000   0.000000   0.000000   0.000000   0.000000
     30       0.000000   0.000000   0.000000   0.000000   0.000000   0.000000
     31       0.000000   0.000000   0.000000   0.000000   0.000000   0.000000
     32       0.000000   0.000000   0.000000   0.000000   0.000000   0.000000
     33       0.000000   0.000000   0.000000   0.000000   0.000000   0.000000
     34       0.000000   0.000000   0.000000   0.000000   0.000000   0.000000
     35       0.000000   0.000000   0.000000   0.000000   0.000000   0.000000
                  6          7          8          9         10         11    
      0      -0.000701  -0.123880   0.014553  -0.019312  -0.179692  -0.024101
      1      -0.217300  -0.103931   0.052316  -0.098955   0.144138   0.030562
      2      -0.214818   0.196107   0.331902   0.073272  -0.145308   0.002981
      3       0.054266  -0.183101  -0.040218  -0.032310  -0.125197  -0.027060
      4      -0.195021  -0.093530   0.011367  -0.083518  -0.028593  -0.010085
      5      -0.095382   0.046976   0.213535   0.022710   0.054163   0.012808
      6       0.000428  -0.273235  -0.077030   0.166078  -0.001393   0.002093
      7      -0.194986  -0.099268   0.019292  -0.163760  -0.091100  -0.034664
      8      -0.189713  -0.119028   0.172920   0.136274   0.112488   0.003563
      9       0.033375   0.033479   0.100715  -0.021282   0.052720   0.009139
     10       0.028817   0.040500  -0.089459   0.063291  -0.005326   0.002758
     11       0.096716  -0.028892   0.039612  -0.039407  -0.005802  -0.004003
     12       0.022194  -0.071343   0.001151  -0.045463  -0.261142  -0.200989
     13      -0.216489  -0.100041   0.075828  -0.145953   0.266334   0.010583
     14      -0.177251   0.290199   0.377670  -0.101740   0.081883  -0.333932
     15      -0.091459  -0.043074   0.097207   0.019170  -0.290767   0.020658
     16      -0.147734  -0.063759   0.065083  -0.283430   0.449638  -0.258515
     17      -0.261524   0.157856   0.313935   0.214794  -0.375684   0.225529
     18       0.028500  -0.216600  -0.040372  -0.017763  -0.040888   0.107978
     19      -0.289089  -0.143905   0.054531   0.061693  -0.083060   0.353546
     20      -0.282012   0.243753   0.374213   0.173886  -0.394932   0.101654
     21       0.161346  -0.263234  -0.144272  -0.080411  -0.108846  -0.032207
     22      -0.303624  -0.150440   0.043132  -0.034700  -0.053574  -0.014090
     23      -0.012805   0.101987   0.196135  -0.016368   0.074811   0.016529
     24       0.026524  -0.316809  -0.108185   0.064350   0.002437   0.188743
     25      -0.182817  -0.105873   0.032546  -0.351761  -0.173648  -0.034334
     26      -0.139565  -0.210612   0.099586   0.015893   0.166548   0.407366
     27      -0.007973  -0.375170  -0.122436   0.253948   0.098953   0.208269
     28      -0.282413  -0.166944   0.022352   0.140734   0.012282  -0.245287
     29      -0.242459  -0.081488   0.210983   0.273342   0.099649  -0.309777
     30      -0.060326  -0.191955  -0.022585   0.448976   0.022752  -0.373939
     31      -0.110401  -0.045193   0.015101  -0.375967  -0.148238   0.167263
     32      -0.245535  -0.176760   0.165447   0.252521   0.153757  -0.086309
     33      -0.095749   0.163146  -0.182536  -0.009090   0.001370  -0.001656
     34       0.184376   0.031320   0.164729   0.002791  -0.003947  -0.000816
     35      -0.009903   0.013847  -0.382056  -0.012970   0.011360   0.001868
                 12         13         14         15         16         17    
      0       0.044127  -0.141188  -0.056485  -0.200902   0.020149  -0.084009
      1      -0.035309  -0.086435  -0.006180  -0.025744   0.054797   0.078626
      2       0.048006   0.031614   0.039138   0.059736   0.038482  -0.043893
      3       0.026311  -0.034616  -0.198037   0.088255   0.015084   0.058309
      4      -0.031394   0.186085   0.073954  -0.176185  -0.001206   0.029326
      5       0.005222   0.102912  -0.346987   0.014555  -0.003376  -0.031701
      6       0.028642   0.130445   0.049684   0.132027   0.026128   0.048999
      7      -0.023512   0.041345   0.046032   0.128018  -0.028872  -0.098554
      8       0.039280  -0.100518  -0.015374  -0.088860  -0.064520   0.065325
      9      -0.017953   0.006978   0.027987  -0.001369  -0.000840   0.002300
     10       0.013798  -0.015377  -0.018135   0.000464  -0.000268   0.001048
     11      -0.018770   0.001060   0.042423  -0.003064   0.000141  -0.000752
     12       0.224770   0.123498   0.119786  -0.503349   0.234006   0.315107
     13       0.007683  -0.253916  -0.044599   0.201747  -0.153956  -0.107572
     14       0.458318  -0.035105   0.200603   0.269983  -0.225349   0.058086
     15       0.061537  -0.464190   0.260843   0.085803  -0.448534   0.048438
     16       0.292228  -0.071748  -0.050989   0.036989  -0.006427  -0.148465
     17      -0.209595   0.045563   0.046484  -0.002800   0.120168   0.128005
     18      -0.120687  -0.212181  -0.370571  -0.139669   0.021488  -0.480082
     19      -0.379855  -0.281380   0.010563   0.150288  -0.158909   0.029063
     20      -0.038336  -0.035863   0.282455   0.127509  -0.096765   0.236202
     21       0.023409  -0.024644  -0.164135   0.180753  -0.349206   0.147180
     22      -0.024696   0.172926   0.032125  -0.235925  -0.174535   0.087114
     23      -0.001088   0.113973  -0.314137   0.050726   0.173826  -0.088575
     24       0.202329   0.085611   0.124750   0.228180   0.169551  -0.003183
     25       0.018826  -0.271201  -0.028147   0.500176   0.372226   0.248458
     26       0.392014  -0.031976   0.190175  -0.098445   0.033536  -0.223588
     27       0.204735   0.233164   0.320339   0.037693  -0.028421  -0.343553
     28      -0.183012  -0.058210   0.335700   0.181271   0.159993  -0.430192
     29      -0.214028  -0.254223  -0.050096   0.029932   0.111379   0.156161
     30      -0.324278   0.260590  -0.044451  -0.028008  -0.267473  -0.151853
     31       0.111457   0.252946  -0.197036   0.033683  -0.313034   0.123774
     32      -0.001269  -0.295384   0.194990   0.025699   0.223190  -0.079784
     33      -0.000835  -0.000412  -0.000687   0.000460   0.000113   0.000229
     34       0.003942   0.001405   0.000676  -0.000692   0.000038   0.000078
     35      -0.000014   0.000107  -0.001756   0.000395  -0.000019  -0.000128
                 18         19         20         21         22         23    
      0      -0.019769   0.062548   0.023101   0.021976  -0.009574  -0.024306
      1       0.030268  -0.003919  -0.117847   0.040272   0.045801   0.028258
      2      -0.081623  -0.101983   0.003045   0.066777   0.037940   0.022237
      3       0.022924  -0.174378  -0.092806  -0.039857  -0.106906  -0.053966
      4       0.035490  -0.092830   0.183836  -0.023744  -0.049748  -0.039667
      5       0.077271   0.085561   0.013867  -0.100220   0.052375   0.018459
      6      -0.064816   0.083007   0.077822   0.011685  -0.000948   0.073958
      7       0.003519   0.084049  -0.087875   0.034156  -0.054162   0.120892
      8      -0.054909   0.029815  -0.017400   0.071559  -0.033204  -0.052115
      9      -0.000735   0.001607  -0.001522  -0.002287   0.000322   0.000175
     10      -0.002812   0.000696   0.000086   0.000482   0.000169   0.000284
     11      -0.004445  -0.000535  -0.003415  -0.004448  -0.000111  -0.000177
     12       0.270023   0.318644  -0.313090   0.030597   0.246488   0.138847
     13      -0.061835  -0.102335   0.105177  -0.049316  -0.145774  -0.098609
     14       0.110125   0.007504   0.079121  -0.185366  -0.129530  -0.092368
     15       0.275452   0.363732   0.312972  -0.281235   0.110407   0.174803
     16      -0.157777  -0.151699   0.121162   0.081053  -0.015831  -0.035667
     17       0.048197  -0.016657  -0.208215   0.051046   0.066996   0.051407
     18      -0.303924  -0.069250   0.279171   0.051036   0.187148   0.128925
     19       0.099397  -0.000350   0.137349  -0.105378  -0.120183  -0.117167
     20       0.185135   0.002857  -0.043476  -0.051839  -0.215253  -0.185228
     21       0.338095  -0.534880   0.209443   0.450761   0.601236   0.166449
     22      -0.327233  -0.225343  -0.191625  -0.599389   0.287484   0.058276
     23       0.372972   0.227278   0.327016   0.360503  -0.292876  -0.089203
     24       0.018687   0.038159   0.105939  -0.108257   0.092136   0.020102
     25      -0.160748   0.238787   0.316811  -0.101363   0.307500  -0.407216
     26       0.213264  -0.159870  -0.144814  -0.112065  -0.036332   0.124567
     27       0.164812  -0.002463  -0.224915   0.011557   0.153581  -0.451748
     28       0.301196  -0.034630  -0.108308  -0.118513   0.281791  -0.418227
     29      -0.035483   0.017645   0.210071  -0.038443   0.065197   0.017712
     30       0.011383   0.089984  -0.331155   0.099124  -0.025576  -0.123978
     31      -0.269971   0.365506  -0.122393   0.252452   0.079145  -0.323387
     32       0.155612  -0.190390   0.087563  -0.127340  -0.125445   0.337294
     33       0.000526   0.000345  -0.000410   0.000042   0.000237  -0.000452
     34      -0.000728   0.000177  -0.000120  -0.000047   0.000138   0.000424
     35       0.000245  -0.000157  -0.000875   0.000055  -0.000127  -0.000401
                 24         25         26         27         28         29    
      0      -0.154157   0.004069  -0.009043   0.012696   0.017863   0.049318
      1       0.009590   0.011289   0.024620   0.020911   0.030969  -0.024408
      2       0.051654  -0.035416   0.019730  -0.024404   0.011954   0.011198
      3       0.095557  -0.001891   0.039134  -0.013204   0.005916  -0.000560
      4       0.035151  -0.003329   0.004928   0.028039   0.020917  -0.000307
      5      -0.050918  -0.000049  -0.012604  -0.026774   0.018097   0.000897
      6      -0.036113   0.036177   0.021492  -0.028140  -0.012789  -0.000586
      7      -0.020045   0.007989  -0.024334  -0.016680   0.005191   0.007281
      8       0.037708   0.016130  -0.020692  -0.011200   0.026231  -0.005322
      9      -0.000534  -0.000076  -0.000154  -0.000123   0.000012  -0.000080
     10      -0.000114  -0.000016  -0.000036  -0.000010  -0.000225   0.000047
     11       0.000191   0.000025   0.000115  -0.000123  -0.000104  -0.000041
     12       0.335845   0.036574  -0.188513  -0.122120  -0.313095  -0.171761
     13      -0.264962   0.148528   0.036664   0.211966   0.111973  -0.324647
     14       0.011222   0.441033  -0.215607   0.348406  -0.253907   0.105092
     15       0.476125  -0.187279   0.251228  -0.057488   0.293683   0.031751
     16      -0.001074  -0.333963  -0.056500  -0.403382  -0.128069   0.261794
     17       0.006636   0.260735   0.054265   0.315055   0.103960   0.330052
     18       0.479125   0.176116  -0.142706   0.114379  -0.246213  -0.439626
     19       0.060426   0.021164  -0.346554  -0.214223  -0.507273   0.353024
     20      -0.403132  -0.159881  -0.106781  -0.248095  -0.117117  -0.572543
     21      -0.263632   0.028367  -0.111726   0.012517  -0.014843   0.001240
     22      -0.134644   0.010087  -0.037942  -0.057647   0.020761  -0.000143
     23       0.119033  -0.014320   0.035166   0.044188   0.027478  -0.001594
     24      -0.068096  -0.206892   0.035381   0.195140  -0.120391  -0.058108
     25       0.033672  -0.235941  -0.308008   0.209770   0.149246   0.016453
     26      -0.064607  -0.360246   0.185393   0.339300  -0.294448   0.027286
     27       0.139869   0.170013  -0.203505  -0.189197   0.273848   0.074160
     28      -0.018390   0.146223   0.354882  -0.125137  -0.145016  -0.061375
     29      -0.106629  -0.003565   0.422029   0.049018  -0.312238   0.090476
     30       0.083712  -0.469644  -0.250162   0.405397  -0.011585  -0.008958
     31       0.030799   0.053948   0.298874  -0.015914  -0.177066  -0.041808
     32      -0.028704   0.065544  -0.219586  -0.088315   0.163910  -0.054443
     33      -0.000342   0.000050   0.000215  -0.000213   0.000189   0.000104
     34       0.000254   0.000034  -0.000019   0.000307   0.000374   0.000020
     35      -0.000200  -0.000025  -0.000065  -0.000186   0.000567  -0.000050
                 30         31         32         33         34         35    
      0       0.008292  -0.012766   0.000771   0.002664  -0.020171  -0.021584
      1      -0.004036   0.006543   0.007141   0.023730  -0.060697  -0.060294
      2       0.001215  -0.085224  -0.007202  -0.022645  -0.006219  -0.009514
      3       0.000911  -0.001100  -0.001349  -0.004487   0.000299  -0.001073
      4       0.000413   0.017200  -0.019571  -0.045206   0.002165  -0.022093
      5       0.000129   0.017825  -0.018514  -0.053449   0.002757  -0.024065
      6      -0.000008   0.003836   0.063988  -0.037096  -0.035674   0.029105
      7      -0.045321  -0.002921   0.004196   0.013216   0.035099  -0.029046
      8       0.029992  -0.002754   0.057122  -0.002265   0.047516  -0.041767
      9      -0.000047   0.000087  -0.000049   0.000046   0.000005  -0.000010
     10       0.000069  -0.000086   0.000092   0.000008   0.000008   0.000046
     11      -0.000068   0.000057  -0.000057   0.000115  -0.000021   0.000030
     12      -0.030261  -0.159410  -0.042613  -0.136768   0.256441   0.251626
     13      -0.054986  -0.296687  -0.082597  -0.258909   0.478022   0.466900
     14       0.018341   0.090188   0.026544   0.087187  -0.165579  -0.161353
     15       0.004504   0.049054   0.003073   0.004421   0.023995   0.023051
     16       0.045819   0.446228   0.019837   0.052641   0.222177   0.242478
     17       0.058180   0.558705   0.023063   0.061079   0.291606   0.318668
     18      -0.070367   0.286001   0.027943   0.102132  -0.041491  -0.028492
     19       0.057077  -0.232479  -0.021352  -0.076420   0.024598   0.014620
     20      -0.092324   0.364616   0.035073   0.125706  -0.052229  -0.036834
     21      -0.000794  -0.015500   0.016412   0.046756  -0.003291   0.019496
     22      -0.000033  -0.191371   0.207381   0.537612  -0.027184   0.242906
     23       0.001575  -0.217621   0.237032   0.620708  -0.030336   0.277223
     24       0.368239  -0.047503  -0.358141   0.325669   0.489038  -0.407204
     25      -0.098024   0.013782   0.094976  -0.084601  -0.122435   0.101293
     26      -0.173072   0.021995   0.176203  -0.150388  -0.222339   0.185950
     27      -0.436423  -0.002946  -0.313689   0.116912   0.009633  -0.000745
     28       0.357249   0.002642   0.264313  -0.101129  -0.006641  -0.000898
     29      -0.527941  -0.004793  -0.381063   0.150393   0.021899  -0.009534
     30       0.061299   0.004988  -0.084389   0.002234  -0.073335   0.065985
     31       0.272707   0.016368  -0.390534   0.027435  -0.290005   0.257137
     32       0.346901   0.019187  -0.488003   0.030155  -0.366108   0.321318
     33      -0.000057  -0.000059  -0.000007  -0.000035   0.000014   0.000006
     34      -0.000060   0.000007  -0.000033   0.000034   0.000003  -0.000008
     35       0.000010  -0.000025   0.000042  -0.000008  -0.000005  -0.000001


-----------
IR SPECTRUM
-----------

 Mode    freq (cm**-1)   T**2         TX         TY         TZ
-------------------------------------------------------------------
   7:        79.99   14.193059  ( -3.670519  -0.827552  -0.188425)
   8:       105.54   32.150510  (  2.116728  -1.977033   4.874558)
   9:       281.12   23.549394  (  2.647996  -2.711226   3.030968)
  10:       288.41    5.161340  ( -1.438389   1.165693  -1.316639)
  11:       307.64    0.227447  ( -0.468905  -0.029648  -0.081831)
  12:       333.10    8.722169  (  1.604167  -1.070735   2.236592)
  13:       406.85    1.482824  ( -0.594963   0.866887  -0.614289)
  14:       533.31   29.957544  ( -2.858150   3.813691  -2.691520)
  15:       907.53   36.257946  (  3.429905  -3.078853   3.874837)
  16:       937.29    2.618177  ( -1.182591  -0.757654   0.803503)
  17:       963.28    0.346770  (  0.178752   0.334895  -0.450182)
  18:      1052.98   69.423869  (  4.832306  -4.332802   5.224893)
  19:      1160.34    2.900185  ( -1.000738  -1.008787   0.938647)
  20:      1170.76  130.976823  ( -6.472679   6.813492  -6.531276)
  21:      1224.59   59.272552  ( -4.207875   3.846904  -5.173748)
  22:      1337.23    0.908490  (  0.814200   0.415934  -0.269385)
  23:      1385.07   19.015195  ( -3.543900  -1.664834  -1.919451)
  24:      1387.33   24.544119  (  2.899238   1.527772  -3.715434)
  25:      1434.95    0.046827  ( -0.146990   0.150430  -0.050908)
  26:      1454.14    2.471474  ( -1.181219  -0.376732   0.966575)
  27:      1457.54    0.710739  ( -0.673262   0.488379   0.137631)
  28:      1464.51   10.846762  (  0.164560  -2.794570  -1.734953)
  29:      3009.73   73.382893  (  1.079337   3.435816  -7.772586)
  30:      3020.02   57.053148  ( -6.298698  -0.689088  -4.111534)
  31:      3123.97   25.192154  (  3.473704  -3.042378   1.967096)
  32:      3128.24   12.032511  ( -0.779256   2.513946  -2.259501)
  33:      3137.12    4.462161  (  0.838021  -1.917807   0.286177)
  34:      3159.50   13.987967  ( -3.286496  -0.938723   1.518457)
  35:      3163.00   37.467323  ( -0.166924  -4.616758  -4.015595)

The first frequency considered to be a vibration is 7
The total number of vibrations considered is 29


--------------------------
THERMOCHEMISTRY AT 298.15K
--------------------------

Temperature         ... 298.15 K
Pressure            ... 1.00 atm
Total Mass          ... 158.44 AMU

Throughout the following assumptions are being made:
  (1) The electronic state is orbitally nondegenerate
  (2) There are no thermally accessible electronically excited states
  (3) Hindered rotations indicated by low frequency modes are not
      treated as such but are treated as vibrations and this may
      cause some error
  (4) All equations used are the standard statistical mechanics
      equations for an ideal gas
  (5) All vibrations are strictly harmonic

freq.      79.99  E(vib)   ...       0.49 
freq.     105.54  E(vib)   ...       0.45 
freq.     281.12  E(vib)   ...       0.28 
freq.     288.41  E(vib)   ...       0.27 
freq.     307.64  E(vib)   ...       0.26 
freq.     333.10  E(vib)   ...       0.24 
freq.     406.85  E(vib)   ...       0.19 
freq.     533.31  E(vib)   ...       0.13 
freq.     907.53  E(vib)   ...       0.03 
freq.     937.29  E(vib)   ...       0.03 
freq.     963.28  E(vib)   ...       0.03 
freq.    1052.98  E(vib)   ...       0.02 
freq.    1160.34  E(vib)   ...       0.01 
freq.    1170.76  E(vib)   ...       0.01 
freq.    1224.59  E(vib)   ...       0.01 
freq.    1337.23  E(vib)   ...       0.01 
freq.    1385.07  E(vib)   ...       0.00 
freq.    1387.33  E(vib)   ...       0.00 
freq.    1434.95  E(vib)   ...       0.00 
freq.    1454.14  E(vib)   ...       0.00 
freq.    1457.54  E(vib)   ...       0.00 
freq.    1464.51  E(vib)   ...       0.00 
freq.    3009.73  E(vib)   ...       0.00 
freq.    3020.02  E(vib)   ...       0.00 
freq.    3123.97  E(vib)   ...       0.00 
freq.    3128.24  E(vib)   ...       0.00 
freq.    3137.12  E(vib)   ...       0.00 
freq.    3159.50  E(vib)   ...       0.00 
freq.    3163.00  E(vib)   ...       0.00 

------------
INNER ENERGY
------------

The inner energy is: U= E(el) + E(ZPE) + E(vib) + E(rot) + E(trans)
    E(el)   - is the total energy from the electronic structure calculation
              = E(kin-el) + E(nuc-el) + E(el-el) + E(nuc-nuc)
    E(ZPE)  - the the zero temperature vibrational energy from the frequency calculation
    E(vib)  - the the finite temperature correction to E(ZPE) due to population
              of excited vibrational states
    E(rot)  - is the rotational thermal energy
    E(trans)- is the translational thermal energy

Summary of contributions to the inner energy U:
Electronic energy                ...  -3151.92737606 Eh
Zero point energy                ...      0.09435049 Eh      59.21 kcal/mol
Thermal vibrational correction   ...      0.00394622 Eh       2.48 kcal/mol
Thermal rotational correction    ...      0.00141627 Eh       0.89 kcal/mol
Thermal translational correction ...      0.00141627 Eh       0.89 kcal/mol
-----------------------------------------------------------------------
Total thermal energy                  -3151.82624681 Eh


Summary of corrections to the electronic energy:
(perhaps to be used in another calculation)
Total thermal correction                  0.00677876 Eh       4.25 kcal/mol
Non-thermal (ZPE) correction              0.09435049 Eh      59.21 kcal/mol
-----------------------------------------------------------------------
Total correction                          0.10112925 Eh      63.46 kcal/mol


--------
ENTHALPY
--------

The enthalpy is H = U + kB*T
                kB is Boltzmann's constant
Total free energy                 ...  -3151.82624681 Eh 
Thermal Enthalpy correction       ...      0.00094421 Eh       0.59 kcal/mol
-----------------------------------------------------------------------
Total Enthalpy                    ...  -3151.82530261 Eh


Note: Only C1 symmetry has been detected, increase convergence thresholds 
      if your molecule has a higher symmetry. Symmetry factor of 1.0 is   
      used for the rotational entropy correction. 
 

Note: Rotational entropy computed according to Herzberg 
Infrared and Raman Spectra, Chapter V,1, Van Nostrand Reinhold, 1945 
Point Group:  C1, Symmetry Number:   1  
Rotational constants in cm-1:     0.238877     0.019489     0.018658 

Vibrational entropy computed according to the QRRHO of S. Grimme
Chem.Eur.J. 2012 18 9955


-------
ENTROPY
-------

The entropy contributions are T*S = T*(S(el)+S(vib)+S(rot)+S(trans))
     S(el)   - electronic entropy
     S(vib)  - vibrational entropy
     S(rot)  - rotational entropy
     S(trans)- translational entropy
The entropies will be listed as mutliplied by the temperature to get
units of energy

Electronic entropy                ...      0.00000000 Eh      0.00 kcal/mol
Vibrational entropy               ...      0.00678377 Eh      4.26 kcal/mol
Rotational entropy                ...      0.01392542 Eh      8.74 kcal/mol
Translational entropy             ...      0.01952304 Eh     12.25 kcal/mol
-----------------------------------------------------------------------
Final entropy term                ...      0.04023223 Eh     25.25 kcal/mol

In case the symmetry of your molecule has not been determined correctly
or in case you have a reason to use a different symmetry number we print 
out the resulting rotational entropy values for sn=1,12 :
 --------------------------------------------------------
|  sn= 1 | S(rot)=       0.01392542 Eh      8.74 kcal/mol|
|  sn= 2 | S(rot)=       0.01327096 Eh      8.33 kcal/mol|
|  sn= 3 | S(rot)=       0.01288813 Eh      8.09 kcal/mol|
|  sn= 4 | S(rot)=       0.01261651 Eh      7.92 kcal/mol|
|  sn= 5 | S(rot)=       0.01240582 Eh      7.78 kcal/mol|
|  sn= 6 | S(rot)=       0.01223368 Eh      7.68 kcal/mol|
|  sn= 7 | S(rot)=       0.01208813 Eh      7.59 kcal/mol|
|  sn= 8 | S(rot)=       0.01196205 Eh      7.51 kcal/mol|
|  sn= 9 | S(rot)=       0.01185084 Eh      7.44 kcal/mol|
|  sn=10 | S(rot)=       0.01175136 Eh      7.37 kcal/mol|
|  sn=11 | S(rot)=       0.01166137 Eh      7.32 kcal/mol|
|  sn=12 | S(rot)=       0.01157922 Eh      7.27 kcal/mol|
 --------------------------------------------------------


-------------------
GIBBS FREE ENERGY
-------------------

The Gibbs free energy is G = H - T*S

Total enthalpy                    ...  -3151.82530261 Eh 
Total entropy correction          ...     -0.04023223 Eh    -25.25 kcal/mol
-----------------------------------------------------------------------
Final Gibbs free energy         ...  -3151.86553484 Eh

For completeness - the Gibbs free energy minus the electronic energy
G-E(el)                           ...      0.06184123 Eh     38.81 kcal/mol

[1631721894.799182] [comp0814:164557:0]            sys.c:618  UCX  ERROR shmget(size=2097152 flags=0xfb0) for mm_recv_desc failed: Operation not permitted, please check shared memory limits by 'ipcs -l'
[1631721894.799316] [comp0814:164559:0]            sys.c:618  UCX  ERROR shmget(size=2097152 flags=0xfb0) for mm_recv_desc failed: Operation not permitted, please check shared memory limits by 'ipcs -l'
[1631721894.807437] [comp0814:164560:0]            sys.c:618  UCX  ERROR shmget(size=2097152 flags=0xfb0) for mm_recv_desc failed: Operation not permitted, please check shared memory limits by 'ipcs -l'
[1631721894.810178] [comp0814:164558:0]            sys.c:618  UCX  ERROR shmget(size=2097152 flags=0xfb0) for mm_recv_desc failed: Operation not permitted, please check shared memory limits by 'ipcs -l'
[1631721894.823092] [comp0814:164557:0]            sys.c:618  UCX  ERROR shmget(size=2097152 flags=0xb80) for ucp_am_bufs failed: Operation not permitted, please check shared memory limits by 'ipcs -l'
[1631721894.823115] [comp0814:164559:0]            sys.c:618  UCX  ERROR shmget(size=2097152 flags=0xb80) for ucp_am_bufs failed: Operation not permitted, please check shared memory limits by 'ipcs -l'
[1631721894.824011] [comp0814:164560:0]            sys.c:618  UCX  ERROR shmget(size=2097152 flags=0xb80) for ucp_am_bufs failed: Operation not permitted, please check shared memory limits by 'ipcs -l'
[1631721894.826418] [comp0814:164558:0]            sys.c:618  UCX  ERROR shmget(size=2097152 flags=0xb80) for ucp_am_bufs failed: Operation not permitted, please check shared memory limits by 'ipcs -l'

Timings for individual modules:

Sum of individual times         ...       46.902 sec (=   0.782 min)
GTO integral calculation        ...        1.170 sec (=   0.019 min)   2.5 %
SCF iterations                  ...        8.852 sec (=   0.148 min)  18.9 %
Analytical frequency calculation...       36.880 sec (=   0.615 min)  78.6 %
                             ****ORCA TERMINATED NORMALLY****
TOTAL RUN TIME: 0 days 0 hours 0 minutes 48 seconds 70 msec
