
                                 *****************
                                 * O   R   C   A *
                                 *****************

           --- An Ab Initio, DFT and Semiempirical electronic structure package ---

                  #######################################################
                  #                        -***-                        #
                  #          Department of theory and spectroscopy      #
                  #               Directorship: Frank Neese             #
                  #        Max Planck Institute fuer Kohlenforschung    #
                  #                Kaiser Wilhelm Platz 1               #
                  #                 D-45470 Muelheim/Ruhr               #
                  #                      Germany                        #
                  #                                                     #
                  #                  All rights reserved                #
                  #                        -***-                        #
                  #######################################################


                         Program Version 4.2.1 -  RELEASE  -


 With contributions from (in alphabetic order):
   Daniel Aravena         : Magnetic Suceptibility
   Michael Atanasov       : Ab Initio Ligand Field Theory (pilot matlab implementation)
   Alexander A. Auer      : GIAO ZORA, VPT2
   Ute Becker             : Parallelization
   Giovanni Bistoni       : ED, misc. LED, open-shell LED, HFLD
   Martin Brehm           : Molecular dynamics
   Dmytro Bykov           : SCF Hessian
   Vijay G. Chilkuri      : MRCI spin determinant printing, contributions to CSF-ICE
   Dipayan Datta          : RHF DLPNO-CCSD density
   Achintya Kumar Dutta   : EOM-CC, STEOM-CC
   Dmitry Ganyushin       : Spin-Orbit,Spin-Spin,Magnetic field MRCI
   Miquel Garcia          : C-PCM Hessian, Gaussian charge scheme
   Yang Guo               : DLPNO-NEVPT2, CIM, IAO-localization
   Andreas Hansen         : Spin unrestricted coupled pair/coupled cluster methods
   Benjamin Helmich-Paris : CASSCF linear response (MC-RPA)
   Lee Huntington         : MR-EOM, pCC
   Robert Izsak           : Overlap fitted RIJCOSX, COSX-SCS-MP3, EOM
   Christian Kollmar      : KDIIS, OOCD, Brueckner-CCSD(T), CCSD density
   Simone Kossmann        : Meta GGA functionals, TD-DFT gradient, OOMP2, MP2 Hessian
   Martin Krupicka        : AUTO-CI
   Lucas Lang             : DCDCAS
   Dagmar Lenk            : GEPOL surface, SMD
   Dimitrios Liakos       : Extrapolation schemes; Compound Job, initial MDCI parallelization
   Dimitrios Manganas     : Further ROCIS development; embedding schemes
   Dimitrios Pantazis     : SARC Basis sets
   Taras Petrenko         : DFT Hessian,TD-DFT gradient, ASA, ECA, R-Raman, ABS, FL, XAS/XES, NRVS
   Peter Pinski           : DLPNO-MP2, DLPNO-MP2 Gradient
   Christoph Reimann      : Effective Core Potentials
   Marius Retegan         : Local ZFS, SOC
   Christoph Riplinger    : Optimizer, TS searches, QM/MM, DLPNO-CCSD(T), (RO)-DLPNO pert. Triples
   Tobias Risthaus        : Range-separated hybrids, TD-DFT gradient, RPA, STAB
   Michael Roemelt        : Original ROCIS implementation
   Masaaki Saitow         : Open-shell DLPNO-CCSD energy and density
   Barbara Sandhoefer     : DKH picture change effects
   Avijit Sen             : IP-ROCIS
   Kantharuban Sivalingam : CASSCF convergence, NEVPT2, FIC-MRCI
   Bernardo de Souza      : ESD, SOC TD-DFT
   Georgi Stoychev        : AutoAux, RI-MP2 NMR
   Willem Van den Heuvel  : Paramagnetic NMR
   Boris Wezisla          : Elementary symmetry handling
   Frank Wennmohs         : Technical directorship


 We gratefully acknowledge several colleagues who have allowed us to
 interface, adapt or use parts of their codes:
   Stefan Grimme, W. Hujo, H. Kruse,             : VdW corrections, initial TS optimization,
                  C. Bannwarth                     DFT functionals, gCP, sTDA/sTD-DF
   Ed Valeev, F. Pavosevic, A. Kumar             : LibInt (2-el integral package), F12 methods
   Garnet Chan, S. Sharma, J. Yang, R. Olivares  : DMRG
   Ulf Ekstrom                                   : XCFun DFT Library
   Mihaly Kallay                                 : mrcc  (arbitrary order and MRCC methods)
   Andreas Klamt, Michael Diedenhofen            : otool_cosmo (COSMO solvation model)
   Jiri Pittner, Ondrej Demel                    : Mk-CCSD
   Frank Weinhold                                : gennbo (NPA and NBO analysis)
   Christopher J. Cramer and Donald G. Truhlar   : smd solvation model
   Lars Goerigk                                  : TD-DFT with DH, B97 family of functionals
   V. Asgeirsson, H. Jonsson                     : NEB implementation
   FAccTs GmbH                                   : IRC, NEB, NEB-TS, Multilevel, MM, QM/MM, CI optimization
   S Lehtola, MJT Oliveira, MAL Marques          : LibXC Library


 Your calculation uses the libint2 library for the computation of 2-el integrals
 For citations please refer to: http://libint.valeyev.net

 Your ORCA version has been built with support for libXC version: 4.2.3
 For citations please refer to: https://tddft.org/programs/libxc/

 This ORCA versions uses:
   CBLAS   interface :  Fast vector & matrix operations
   LAPACKE interface :  Fast linear algebra routines
   SCALAPACK package :  Parallel linear algebra routines


Your calculation utilizes the atom-pairwise dispersion correction
with the Becke-Johnson damping scheme (D3BJ)
Cite in your paper:
S.Grimme, S.Ehrlich, L.Goerigk, J Comput Chem, (2011), 32, 1456–1465 
S.Grimme, J.Antony, S.Ehrlich and H.Krieg, J.Chem.Phys., 132, (2010), 154104 
   

----- Orbital basis set information -----
Your calculation utilizes the basis: def2-SVP
   F. Weigend and R. Ahlrichs, Phys. Chem. Chem. Phys. 7, 3297 (2005).

----- AuxJ basis set information -----
Your calculation utilizes the auxiliary basis: def2/J
   F. Weigend, Phys. Chem. Chem. Phys. 8, 1057 (2006).

================================================================================
                                        WARNINGS
                       Please study these warnings very carefully!
================================================================================


INFO   : the flag for use of LIBINT has been found!

================================================================================
                                       INPUT FILE
================================================================================
NAME = manual_reactants_344_freq.inp
|  1> ! Freq PBE0 RIJCOSX D3BJ def2-SVP def2/J CPCM(DMF)
|  2> %geom MaxIter 100 end
|  3> %output 
|  4> xyzfile=True 
|  5> end 
|  6> %scf 
|  7> maxiter 250 
|  8> end
|  9> %output
| 10> Print[P_Hirshfeld] = 1
| 11> end
| 12> % maxcore
| 13> 4000
| 14> %pal nprocs 4
| 15> end
| 16> *xyz -1 1
| 17>   C   -0.05543222422965     -1.06890138008958      1.02389465376885
| 18>   C   0.62917946061395     -0.45398884179057     -0.19087510498457
| 19>   C   1.43524234469715      0.78051261614000      0.19474917369501
| 20>   C   -0.29978728776592     -0.23845529029786     -1.36840351901004
| 21>   Br  -1.80658640449709      0.97235637542428     -0.98232754748740
| 22>   H   0.72720397507228     -1.41840868363841      1.71520443910096
| 23>   H   -0.69536041203735     -0.32971351059636      1.53321465903038
| 24>   H   -0.68737483476443     -1.92629897901319      0.74189928870881
| 25>   H   1.35818821998424     -1.20304779923236     -0.55557445799467
| 26>   H   1.92763419837458      1.23667938008889     -0.68007916555388
| 27>   H   0.79622713804767      1.54586217726889      0.66435200175038
| 28>   H   2.21104094083607      0.46902984933777      0.91069566241496
| 29>   H   0.21292819749066      0.22633703217323     -2.22104947992072
| 30>   H   -0.77781794359335     -1.17141559852099     -1.69344615225637
| 31>   Cl  3.32274463177119     -1.88723734725373      1.82746554873829
| 32> *
| 33> 
| 34>                          ****END OF INPUT****
================================================================================

                       ****************************
                       * Single Point Calculation *
                       ****************************

---------------------------------
CARTESIAN COORDINATES (ANGSTROEM)
---------------------------------
  C     -0.055432   -1.068901    1.023895
  C      0.629179   -0.453989   -0.190875
  C      1.435242    0.780513    0.194749
  C     -0.299787   -0.238455   -1.368404
  Br    -1.806586    0.972356   -0.982328
  H      0.727204   -1.418409    1.715204
  H     -0.695360   -0.329714    1.533215
  H     -0.687375   -1.926299    0.741899
  H      1.358188   -1.203048   -0.555574
  H      1.927634    1.236679   -0.680079
  H      0.796227    1.545862    0.664352
  H      2.211041    0.469030    0.910696
  H      0.212928    0.226337   -2.221049
  H     -0.777818   -1.171416   -1.693446
  Cl     3.322745   -1.887237    1.827466

----------------------------
CARTESIAN COORDINATES (A.U.)
----------------------------
  NO LB      ZA    FRAG     MASS         X           Y           Z
   0 C     6.0000    0    12.011   -0.104752   -2.019931    1.934880
   1 C     6.0000    0    12.011    1.188977   -0.857915   -0.360702
   2 C     6.0000    0    12.011    2.712215    1.474955    0.368023
   3 C     6.0000    0    12.011   -0.566516   -0.450615   -2.585908
   4 Br   35.0000    0    79.900   -3.413954    1.837487   -1.856330
   5 H     1.0000    0     1.008    1.374216   -2.680404    3.241267
   6 H     1.0000    0     1.008   -1.314041   -0.623068    2.897356
   7 H     1.0000    0     1.008   -1.298950   -3.640178    1.401986
   8 H     1.0000    0     1.008    2.566604   -2.273431   -1.049884
   9 H     1.0000    0     1.008    3.642701    2.336985   -1.285163
  10 H     1.0000    0     1.008    1.504651    2.921256    1.255443
  11 H     1.0000    0     1.008    4.178262    0.886338    1.720965
  12 H     1.0000    0     1.008    0.402376    0.427715   -4.197175
  13 H     1.0000    0     1.008   -1.469863   -2.213655   -3.200149
  14 Cl   17.0000    0    35.453    6.279077   -3.566362    3.453409

--------------------------------
INTERNAL COORDINATES (ANGSTROEM)
--------------------------------
 C      0   0   0     0.000000000000     0.00000000     0.00000000
 C      1   0   0     1.523967242287     0.00000000     0.00000000
 C      2   1   0     1.523954496380   111.27009536     0.00000000
 C      2   1   3     1.515258095920   113.66747128   229.76350404
 Br     4   2   1     1.971183178656   113.81659757    60.40792657
 H      1   2   3     1.101173916776   108.01145107   296.09723486
 H      1   2   3     1.102412654008   111.00731347    56.26825142
 H      1   2   3     1.101818266124   111.56952759   176.63449770
 H      2   1   3     1.107045035691   106.58309554   115.65661793
 H      3   2   1     1.102661542475   111.74982887   180.45705430
 H      3   2   1     1.102101266294   111.32671531   301.36699647
 H      3   2   1     1.100665412601   107.94860759    61.14499636
 H      4   2   1     1.098141250708   112.16961113   178.68596815
 H      4   2   1     1.097534035034   112.10217584   302.31440906
 Cl     6   1   2     2.639930713701   141.42946733   347.06290261

---------------------------
INTERNAL COORDINATES (A.U.)
---------------------------
 C      0   0   0     0.000000000000     0.00000000     0.00000000
 C      1   0   0     2.879880724989     0.00000000     0.00000000
 C      2   1   0     2.879856638716   111.27009536     0.00000000
 C      2   1   3     2.863422823496   113.66747128   229.76350404
 Br     4   2   1     3.724996367453   113.81659757    60.40792657
 H      1   2   3     2.080917128524   108.01145107   296.09723486
 H      1   2   3     2.083258002644   111.00731347    56.26825142
 H      1   2   3     2.082134772327   111.56952759   176.63449770
 H      2   1   3     2.092011935373   106.58309554   115.65661793
 H      3   2   1     2.083728333684   111.74982887   180.45705430
 H      3   2   1     2.082669565144   111.32671531   301.36699647
 H      3   2   1     2.079956194895   107.94860759    61.14499636
 H      4   2   1     2.075186220201   112.16961113   178.68596815
 H      4   2   1     2.074038748872   112.10217584   302.31440906
 Cl     6   1   2     4.988746061422   141.42946733   347.06290261

---------------------
BASIS SET INFORMATION
---------------------
There are 4 groups of distinct atoms

 Group   1 Type C   : 7s4p1d contracted to 3s2p1d pattern {511/31/1}
 Group   2 Type Br  : 14s10p6d contracted to 5s4p3d pattern {63311/5311/411}
 Group   3 Type H   : 4s1p contracted to 2s1p pattern {31/1}
 Group   4 Type Cl  : 10s7p1d contracted to 4s3p1d pattern {5311/511/1}

Atom   0C    basis set group =>   1
Atom   1C    basis set group =>   1
Atom   2C    basis set group =>   1
Atom   3C    basis set group =>   1
Atom   4Br   basis set group =>   2
Atom   5H    basis set group =>   3
Atom   6H    basis set group =>   3
Atom   7H    basis set group =>   3
Atom   8H    basis set group =>   3
Atom   9H    basis set group =>   3
Atom  10H    basis set group =>   3
Atom  11H    basis set group =>   3
Atom  12H    basis set group =>   3
Atom  13H    basis set group =>   3
Atom  14Cl   basis set group =>   4
---------------------------------
AUXILIARY/J BASIS SET INFORMATION
---------------------------------
There are 4 groups of distinct atoms

 Group   1 Type C   : 12s5p4d2f1g contracted to 6s4p3d1f1g pattern {711111/2111/211/2/1}
 Group   2 Type Br  : 19s5p5d3f1g contracted to 8s4p3d2f1g pattern {121111111/2111/311/21/1}
 Group   3 Type H   : 5s2p1d contracted to 3s1p1d pattern {311/2/1}
 Group   4 Type Cl  : 14s5p5d2f1g contracted to 8s4p3d1f1g pattern {71111111/2111/311/2/1}

Atom   0C    basis set group =>   1
Atom   1C    basis set group =>   1
Atom   2C    basis set group =>   1
Atom   3C    basis set group =>   1
Atom   4Br   basis set group =>   2
Atom   5H    basis set group =>   3
Atom   6H    basis set group =>   3
Atom   7H    basis set group =>   3
Atom   8H    basis set group =>   3
Atom   9H    basis set group =>   3
Atom  10H    basis set group =>   3
Atom  11H    basis set group =>   3
Atom  12H    basis set group =>   3
Atom  13H    basis set group =>   3
Atom  14Cl   basis set group =>   4
[1631721863.194254] [comp0802:140547:0]            sys.c:618  UCX  ERROR shmget(size=2097152 flags=0xfb0) for mm_recv_desc failed: Operation not permitted, please check shared memory limits by 'ipcs -l'
[1631721863.196911] [comp0802:140549:0]            sys.c:618  UCX  ERROR shmget(size=2097152 flags=0xfb0) for mm_recv_desc failed: Operation not permitted, please check shared memory limits by 'ipcs -l'
[1631721863.198102] [comp0802:140550:0]            sys.c:618  UCX  ERROR shmget(size=2097152 flags=0xfb0) for mm_recv_desc failed: Operation not permitted, please check shared memory limits by 'ipcs -l'
[1631721863.202941] [comp0802:140548:0]            sys.c:618  UCX  ERROR shmget(size=2097152 flags=0xfb0) for mm_recv_desc failed: Operation not permitted, please check shared memory limits by 'ipcs -l'
[1631721863.225818] [comp0802:140550:0]            sys.c:618  UCX  ERROR shmget(size=2097152 flags=0xb80) for ucp_am_bufs failed: Operation not permitted, please check shared memory limits by 'ipcs -l'
[1631721863.230472] [comp0802:140547:0]            sys.c:618  UCX  ERROR shmget(size=2097152 flags=0xb80) for ucp_am_bufs failed: Operation not permitted, please check shared memory limits by 'ipcs -l'
[1631721863.230740] [comp0802:140549:0]            sys.c:618  UCX  ERROR shmget(size=2097152 flags=0xb80) for ucp_am_bufs failed: Operation not permitted, please check shared memory limits by 'ipcs -l'
[1631721863.232044] [comp0802:140548:0]            sys.c:618  UCX  ERROR shmget(size=2097152 flags=0xb80) for ucp_am_bufs failed: Operation not permitted, please check shared memory limits by 'ipcs -l'


           ************************************************************
           *        Program running with 4 parallel MPI-processes     *
           *              working on a common directory               *
           ************************************************************
------------------------------------------------------------------------------
                           ORCA GTO INTEGRAL CALCULATION
                           -- RI-GTO INTEGRALS CHOSEN --
------------------------------------------------------------------------------

                         BASIS SET STATISTICS AND STARTUP INFO

Gaussian basis set:
 # of primitive gaussian shells          ...  141
 # of primitive gaussian functions       ...  269
 # of contracted shells                  ...   71
 # of contracted basis functions         ...  151
 Highest angular momentum                ...    2
 Maximum contraction depth               ...    6
Auxiliary gaussian basis set:
 # of primitive gaussian shells          ...  228
 # of primitive gaussian functions       ...  590
 # of contracted shells                  ...  140
 # of contracted aux-basis functions     ...  404
 Highest angular momentum                ...    4
 Maximum contraction depth               ...   12
Ratio of auxiliary to basis functions    ...  2.68
Integral package used                  ... LIBINT
 One Electron integrals                  ... done
 Ordering auxiliary basis shells         ... done
 Integral threshhold             Thresh  ...  1.000e-10
 Primitive cut-off               TCut    ...  1.000e-11
 Pre-screening matrix                    ... done
 Shell pair data                         ... 
 Ordering of the shell pairs             ... done (   0.000 sec) 2357 of 2556 pairs
 Determination of significant pairs      ... done (   0.000 sec)
 Creation of shell pair data             ... done (   0.000 sec)
 Storage of shell pair data              ... done (   0.005 sec)
 Shell pair data done in (   0.005 sec)
 Computing two index integrals           ... done
 Cholesky decomposition of the V-matrix  ... done


Timings:
 Total evaluation time                   ...   0.206 sec (  0.003 min)
 One electron matrix time                ...   0.026 sec (  0.000 min) = 12.4%
 Schwartz matrix evaluation time         ...   0.132 sec (  0.002 min) = 63.9%
 Two index repulsion integral time       ...   0.004 sec (  0.000 min) =  1.7%
 Cholesky decomposition of V             ...   0.002 sec (  0.000 min) =  1.0%
 Three index repulsion integral time     ...   0.000 sec (  0.000 min) =  0.0%

[1631721864.350166] [comp0802:140570:0]            sys.c:618  UCX  ERROR shmget(size=2097152 flags=0xfb0) for mm_recv_desc failed: Operation not permitted, please check shared memory limits by 'ipcs -l'
[1631721864.351890] [comp0802:140568:0]            sys.c:618  UCX  ERROR shmget(size=2097152 flags=0xfb0) for mm_recv_desc failed: Operation not permitted, please check shared memory limits by 'ipcs -l'
[1631721864.366903] [comp0802:140569:0]            sys.c:618  UCX  ERROR shmget(size=2097152 flags=0xfb0) for mm_recv_desc failed: Operation not permitted, please check shared memory limits by 'ipcs -l'
[1631721864.367246] [comp0802:140571:0]            sys.c:618  UCX  ERROR shmget(size=2097152 flags=0xfb0) for mm_recv_desc failed: Operation not permitted, please check shared memory limits by 'ipcs -l'
[1631721864.387592] [comp0802:140570:0]            sys.c:618  UCX  ERROR shmget(size=2097152 flags=0xb80) for ucp_am_bufs failed: Operation not permitted, please check shared memory limits by 'ipcs -l'
[1631721864.387600] [comp0802:140571:0]            sys.c:618  UCX  ERROR shmget(size=2097152 flags=0xb80) for ucp_am_bufs failed: Operation not permitted, please check shared memory limits by 'ipcs -l'
[1631721864.388635] [comp0802:140568:0]            sys.c:618  UCX  ERROR shmget(size=2097152 flags=0xb80) for ucp_am_bufs failed: Operation not permitted, please check shared memory limits by 'ipcs -l'


           ************************************************************
           *        Program running with 4 parallel MPI-processes     *
           *              working on a common directory               *
           ************************************************************
[1631721864.392472] [comp0802:140569:0]            sys.c:618  UCX  ERROR shmget(size=2097152 flags=0xb80) for ucp_am_bufs failed: Operation not permitted, please check shared memory limits by 'ipcs -l'
-------------------------------------------------------------------------------
                                 ORCA SCF
-------------------------------------------------------------------------------

------------
SCF SETTINGS
------------
Hamiltonian:
 Density Functional     Method          .... DFT(GTOs)
 Exchange Functional    Exchange        .... PBE
   PBE kappa parameter   XKappa         ....  0.804000
   PBE mue parameter    XMuePBE         ....  0.219520
 Correlation Functional Correlation     .... PBE
   PBE beta parameter  CBetaPBE         ....  0.066725
 LDA part of GGA corr.  LDAOpt          .... PW91-LDA
 Gradients option       PostSCFGGA      .... off
 Hybrid DFT is turned on
   Fraction HF Exchange ScalHFX         ....  0.250000
   Scaling of DF-GGA-X  ScalDFX         ....  0.750000
   Scaling of DF-GGA-C  ScalDFC         ....  1.000000
   Scaling of DF-LDA-C  ScalLDAC        ....  1.000000
   Perturbative correction              ....  0.000000
   Density functional embedding theory  .... OFF
   NL short-range parameter             ....  6.900000
 RI-approximation to the Coulomb term is turned on
   Number of auxiliary basis functions  .... 404
   RIJ-COSX (HFX calculated with COS-X)).... on


General Settings:
 Integral files         IntName         .... manual_reactants_344_freq
 Hartree-Fock type      HFTyp           .... RHF
 Total Charge           Charge          ....   -1
 Multiplicity           Mult            ....    1
 Number of Electrons    NEL             ....   86
 Basis Dimension        Dim             ....  151
 Nuclear Repulsion      ENuc            ....    460.6491831239 Eh

Convergence Acceleration:
 DIIS                   CNVDIIS         .... on
   Start iteration      DIISMaxIt       ....    12
   Startup error        DIISStart       ....  0.200000
   # of expansion vecs  DIISMaxEq       ....     5
   Bias factor          DIISBfac        ....   1.050
   Max. coefficient     DIISMaxC        ....  10.000
 Newton-Raphson         CNVNR           .... off
 SOSCF                  CNVSOSCF        .... on
   Start iteration      SOSCFMaxIt      ....   150
   Startup grad/error   SOSCFStart      ....  0.003300
 Level Shifting         CNVShift        .... on
   Level shift para.    LevelShift      ....    0.2500
   Turn off err/grad.   ShiftErr        ....    0.0010
 Zerner damping         CNVZerner       .... off
 Static damping         CNVDamp         .... on
   Fraction old density DampFac         ....    0.7000
   Max. Damping (<1)    DampMax         ....    0.9800
   Min. Damping (>=0)   DampMin         ....    0.0000
   Turn off err/grad.   DampErr         ....    0.1000
 Fernandez-Rico         CNVRico         .... off

SCF Procedure:
 Maximum # iterations   MaxIter         ....   250
 SCF integral mode      SCFMode         .... Direct
   Integral package                     .... LIBINT
 Reset frequency        DirectResetFreq ....    20
 Integral Threshold     Thresh          ....  1.000e-10 Eh
 Primitive CutOff       TCut            ....  1.000e-11 Eh

Convergence Tolerance:
 Convergence Check Mode ConvCheckMode   .... Total+1el-Energy
 Convergence forced     ConvForced      .... 0
 Energy Change          TolE            ....  1.000e-06 Eh
 1-El. energy change                    ....  1.000e-03 Eh
 Orbital Gradient       TolG            ....  5.000e-05
 Orbital Rotation angle TolX            ....  5.000e-05
 DIIS Error             TolErr          ....  1.000e-06


Diagonalization of the overlap matrix:
Smallest eigenvalue                        ... 2.084e-03
Time for diagonalization                   ...    0.007 sec
Threshold for overlap eigenvalues          ... 1.000e-08
Number of eigenvalues below threshold      ... 0
Time for construction of square roots      ...    0.002 sec
Total time needed                          ...    0.009 sec

-------------------
DFT GRID GENERATION
-------------------

General Integration Accuracy     IntAcc      ...  4.340
Radial Grid Type                 RadialGrid  ... Gauss-Chebyshev
Angular Grid (max. acc.)         AngularGrid ... Lebedev-110
Angular grid pruning method      GridPruning ... 3 (G Style)
Weight generation scheme         WeightScheme... Becke
Basis function cutoff            BFCut       ...    1.0000e-10
Integration weight cutoff        WCut        ...    1.0000e-14
Grids for H and He will be reduced by one unit

# of grid points (after initial pruning)     ...  18504 (   0.0 sec)
# of grid points (after weights+screening)   ...  17325 (   0.0 sec)
nearest neighbour list constructed           ...    0.0 sec
Grid point re-assignment to atoms done       ...    0.0 sec
Grid point division into batches done        ...    0.0 sec
Reduced shell lists constructed in    0.1 sec

Total number of grid points                  ...    17325
Total number of batches                      ...      278
Average number of points per batch           ...       62
Average number of grid points per atom       ...     1155
Average number of shells per batch           ...    53.83 (75.82%)
Average number of basis functions per batch  ...   112.96 (74.81%)
Average number of large shells per batch     ...    44.41 (82.50%)
Average number of large basis fcns per batch ...    90.35 (79.99%)
Maximum spatial batch extension              ...  14.21, 15.66, 16.67 au
Average spatial batch extension              ...   0.59,  0.59,  0.61 au

Time for grid setup =    0.107 sec

------------------------------
INITIAL GUESS: MODEL POTENTIAL
------------------------------
Loading Hartree-Fock densities                     ... done
Calculating cut-offs                               ... done
Setting up the integral package                    ... done
Initializing the effective Hamiltonian             ... done
Starting the Coulomb interaction                   ... done (   0.0 sec)
Reading the grid                                   ... done
Mapping shells                                     ... done
Starting the XC term evaluation                    ... done (   0.0 sec)
  promolecular density results
     # of electrons  =     84.993037846
     EX              =   -139.717194276
     EC              =     -3.437261717
     EX+EC           =   -143.154455993
Transforming the Hamiltonian                       ... done (   0.0 sec)
Diagonalizing the Hamiltonian                      ... done (   0.0 sec)
Back transforming the eigenvectors                 ... done (   0.0 sec)
Now organizing SCF variables                       ... done
                      ------------------
                      INITIAL GUESS DONE (   0.3 sec)
                      ------------------
--------------------
COSX GRID GENERATION
--------------------

General Integration Accuracy     IntAcc      ...  3.340
Radial Grid Type                 RadialGrid  ... Gauss-Chebyshev
Angular Grid (max. acc.)         AngularGrid ... Lebedev-50
Angular grid pruning method      GridPruning ... 3 (G Style)
Weight generation scheme         WeightScheme... Becke
Basis function cutoff            BFCut       ...    1.0000e-10
Integration weight cutoff        WCut        ...    1.0000e-14
Grids for H and He will be reduced by one unit

# of grid points (after initial pruning)     ...   6948 (   0.0 sec)
# of grid points (after weights+screening)   ...   6515 (   0.0 sec)
nearest neighbour list constructed           ...    0.0 sec
Grid point re-assignment to atoms done       ...    0.0 sec
Grid point division into batches done        ...    0.0 sec
Reduced shell lists constructed in    0.0 sec

Total number of grid points                  ...     6515
Total number of batches                      ...      109
Average number of points per batch           ...       59
Average number of grid points per atom       ...      434
Average number of shells per batch           ...    55.21 (77.76%)
Average number of basis functions per batch  ...   116.72 (77.30%)
Average number of large shells per batch     ...    46.17 (83.64%)
Average number of large basis fcns per batch ...    94.17 (80.68%)
Maximum spatial batch extension              ...  14.82, 11.21, 15.74 au
Average spatial batch extension              ...   0.76,  0.71,  0.73 au

Overlap Fitting                  UseSFitting ... on
Constructing numerical overlap ... done (      0.0 sec)
Inverting numerical overlap    ... done (      0.0 sec)
Obtaining analytic overlap     ... done (      0.0 sec)
Final contraction and storage  ... done (      0.0 sec)


General Integration Accuracy     IntAcc      ...  3.670
Radial Grid Type                 RadialGrid  ... Gauss-Chebyshev
Angular Grid (max. acc.)         AngularGrid ... Lebedev-50
Angular grid pruning method      GridPruning ... 3 (G Style)
Weight generation scheme         WeightScheme... Becke
Basis function cutoff            BFCut       ...    1.0000e-10
Integration weight cutoff        WCut        ...    1.0000e-14
Grids for H and He will be reduced by one unit

# of grid points (after initial pruning)     ...   8800 (   0.0 sec)
# of grid points (after weights+screening)   ...   8224 (   0.0 sec)
nearest neighbour list constructed           ...    0.0 sec
Grid point re-assignment to atoms done       ...    0.0 sec
Grid point division into batches done        ...    0.0 sec
Reduced shell lists constructed in    0.0 sec

Total number of grid points                  ...     8224
Total number of batches                      ...      136
Average number of points per batch           ...       60
Average number of grid points per atom       ...      548
Average number of shells per batch           ...    55.37 (77.99%)
Average number of basis functions per batch  ...   116.86 (77.39%)
Average number of large shells per batch     ...    46.06 (83.18%)
Average number of large basis fcns per batch ...    93.94 (80.39%)
Maximum spatial batch extension              ...  15.68, 12.00, 16.96 au
Average spatial batch extension              ...   0.67,  0.64,  0.67 au

Overlap Fitting                  UseSFitting ... on
Constructing numerical overlap ... done (      0.0 sec)
Inverting numerical overlap    ... done (      0.0 sec)
Obtaining analytic overlap     ... done (      0.0 sec)
Final contraction and storage  ... done (      0.0 sec)


General Integration Accuracy     IntAcc      ...  4.010
Radial Grid Type                 RadialGrid  ... Gauss-Chebyshev
Angular Grid (max. acc.)         AngularGrid ... Lebedev-110
Angular grid pruning method      GridPruning ... 3 (G Style)
Weight generation scheme         WeightScheme... Becke
Basis function cutoff            BFCut       ...    1.0000e-10
Integration weight cutoff        WCut        ...    1.0000e-14
Grids for H and He will be reduced by one unit

# of grid points (after initial pruning)     ...  16122 (   0.0 sec)
# of grid points (after weights+screening)   ...  15127 (   0.0 sec)
nearest neighbour list constructed           ...    0.0 sec
Grid point re-assignment to atoms done       ...    0.0 sec
Grid point division into batches done        ...    0.0 sec
Reduced shell lists constructed in    0.0 sec

Total number of grid points                  ...    15127
Total number of batches                      ...      244
Average number of points per batch           ...       61
Average number of grid points per atom       ...     1008
Average number of shells per batch           ...    54.06 (76.15%)
Average number of basis functions per batch  ...   113.61 (75.24%)
Average number of large shells per batch     ...    44.85 (82.97%)
Average number of large basis fcns per batch ...    91.63 (80.65%)
Maximum spatial batch extension              ...  13.48, 15.38, 15.84 au
Average spatial batch extension              ...   0.63,  0.62,  0.69 au

Overlap Fitting                  UseSFitting ... on
Constructing numerical overlap ... done (      0.0 sec)
Inverting numerical overlap    ... done (      0.0 sec)
Obtaining analytic overlap     ... done (      0.0 sec)
Final contraction and storage  ... done (      0.0 sec)

Time for X-Grid setup             =    0.172 sec

--------------------
CPCM SOLVATION MODEL
--------------------
CPCM parameters:
  Epsilon                                         ...      38.3000
  Refrac                                          ...       1.4300
  Rsolv                                           ...       1.3000
  Surface type                                    ...    GEPOL SES
  Epsilon function type                           ...         CPCM
Radii:
 Radius for C  used is    3.7795 Bohr (=   2.0000 Ang.)
 Radius for Br used is    4.0818 Bohr (=   2.1600 Ang.)
 Radius for H  used is    2.4566 Bohr (=   1.3000 Ang.)
 Radius for Cl used is    3.8739 Bohr (=   2.0500 Ang.)
Calculating surface                               ...        done! (  0.1s)
GEPOL surface points                              ...          627
GEPOL Volume                                      ...    1109.3370
GEPOL Surface-area                                ...     619.1136
Calculating surface distance matrix               ...        done! (  0.0s)
Performing Cholesky decomposition & store         ...        done! (  0.0s)
Overall time for CPCM initialization              ...                 0.1s
--------------
SCF ITERATIONS
--------------
ITER       Energy         Delta-E        Max-DP      RMS-DP      [F,P]     Damp
               ***  Starting incremental Fock matrix formation  ***
  0  -3190.9722972068   0.000000000000 0.10677155  0.00240107  0.1576690 0.7000
  1  -3191.0525753455  -0.080278138699 0.07495493  0.00181186  0.0908773 0.7000
                               ***Turning on DIIS***
  2  -3191.0884490813  -0.035873735800 0.13544073  0.00343515  0.0488129 0.0000
  3  -3191.1399772869  -0.051528205599 0.04017361  0.00109490  0.0443589 0.0000
  4  -3191.1528016675  -0.012824380590 0.01903224  0.00036678  0.0109073 0.0000
                      *** Initiating the SOSCF procedure ***
                           *** Shutting down DIIS ***
                      *** Re-Reading the Fockian *** 
                      *** Removing any level shift *** 
ITER      Energy       Delta-E        Grad      Rot      Max-DP    RMS-DP
  5  -3191.15339968  -0.0005980117  0.000632  0.000632  0.002134  0.000096
               *** Restarting incremental Fock matrix formation ***
  6  -3191.15340827  -0.0000085921  0.000308  0.000672  0.001744  0.000066
  7  -3191.15340973  -0.0000014545  0.000251  0.000166  0.000769  0.000016
  8  -3191.15341188  -0.0000021582  0.000033  0.000035  0.000249  0.000005
  9  -3191.15341175   0.0000001330  0.000027  0.000016  0.000103  0.000002
                 **** Energy Check signals convergence ****
              ***Rediagonalizing the Fockian in SOSCF/NRSCF***

               *****************************************************
               *                     SUCCESS                       *
               *           SCF CONVERGED AFTER  10 CYCLES          *
               *****************************************************

Setting up the final grid:

General Integration Accuracy     IntAcc      ...  4.670
Radial Grid Type                 RadialGrid  ... Gauss-Chebyshev
Angular Grid (max. acc.)         AngularGrid ... Lebedev-302
Angular grid pruning method      GridPruning ... 3 (G Style)
Weight generation scheme         WeightScheme... Becke
Basis function cutoff            BFCut       ...    1.0000e-10
Integration weight cutoff        WCut        ...    1.0000e-14
Grids for H and He will be reduced by one unit

# of grid points (after initial pruning)     ...  71748 (   0.0 sec)
# of grid points (after weights+screening)   ...  66143 (   0.0 sec)
nearest neighbour list constructed           ...    0.0 sec
Grid point re-assignment to atoms done       ...    0.0 sec
Grid point division into batches done        ...    0.2 sec
Reduced shell lists constructed in    0.3 sec

Total number of grid points                  ...    66143
Total number of batches                      ...     1039
Average number of points per batch           ...       63
Average number of grid points per atom       ...     4410
Average number of shells per batch           ...    51.88 (73.07%)
Average number of basis functions per batch  ...   108.23 (71.68%)
Average number of large shells per batch     ...    41.77 (80.52%)
Average number of large basis fcns per batch ...    84.33 (77.91%)
Maximum spatial batch extension              ...  12.45, 15.31, 18.29 au
Average spatial batch extension              ...   0.41,  0.42,  0.43 au

Final grid set up in    0.4 sec
Final integration                            ... done (   0.1 sec)
Change in XC energy                          ...    -0.000569988
Integrated number of electrons               ...    86.000062381
Previous integrated no of electrons          ...    85.996617631
Old exchange energy                            =    -35.327865708 Eh
New exchange energy                            =    -35.327576659 Eh
Exchange energy change after final integration =      0.000289049 Eh
Total energy after final integration           =  -3191.153692836 Eh
Final COS-X integration done in                =     0.871 sec

----------------
TOTAL SCF ENERGY
----------------

Total Energy       :        -3191.15369284 Eh          -86835.70662 eV

Components:
Nuclear Repulsion  :          460.64918312 Eh           12534.90153 eV
Electronic Energy  :        -3651.80287596 Eh          -99370.60816 eV
One Electron Energy:        -5360.80208646 Eh         -145874.84091 eV
Two Electron Energy:         1708.99921050 Eh           46504.23275 eV
CPCM Dielectric    :           -0.10570190 Eh              -2.87630 eV

Virial components:
Potential Energy   :        -6377.05130372 Eh         -173528.38799 eV
Kinetic Energy     :         3185.89761088 Eh           86692.68136 eV
Virial Ratio       :            2.00164980


DFT components:
N(Alpha)           :       43.000031190682 electrons
N(Beta)            :       43.000031190682 electrons
N(Total)           :       86.000062381363 electrons
E(X)               :     -105.465419571233 Eh       
E(C)               :       -3.488946972905 Eh       
E(XC)              :     -108.954366544138 Eh       
DFET-embed. en.    :        0.000000000000 Eh       
CPCM Solvation Model Properties:
Surface-charge          :            0.97804154
Charge-correction       :           -0.00304511 Eh              -0.08286 eV
Free-energy (cav+disp)  :            0.00397390 Eh               0.10814 eV
Corrected G(solv)       :        -3191.15276405 Eh          -86835.68135 eV

---------------
SCF CONVERGENCE
---------------

  Last Energy change         ...   -1.4616e-07  Tolerance :   1.0000e-06
  Last MAX-Density change    ...    4.4409e-15  Tolerance :   1.0000e-05
  Last RMS-Density change    ...    9.6503e-17  Tolerance :   1.0000e-06
  Last Orbital Gradient      ...    2.3203e-06  Tolerance :   5.0000e-05
  Last Orbital Rotation      ...    4.8549e-06  Tolerance :   5.0000e-05

             **** THE GBW FILE WAS UPDATED (manual_reactants_344_freq.gbw) ****
             **** DENSITY FILE WAS UPDATED (manual_reactants_344_freq.scfp) ****
             **** ENERGY FILE WAS UPDATED (manual_reactants_344_freq.en.tmp) ****
             **** THE GBW FILE WAS UPDATED (manual_reactants_344_freq.gbw) ****
             **** DENSITY FILE WAS UPDATED (manual_reactants_344_freq.scfp) ****
----------------
ORBITAL ENERGIES
----------------

  NO   OCC          E(Eh)            E(eV) 
   0   2.0000    -483.173309    -13147.8142 
   1   2.0000    -101.523215     -2762.5871 
   2   2.0000     -62.609436     -1703.6894 
   3   2.0000     -56.398530     -1534.6820 
   4   2.0000     -56.396363     -1534.6231 
   5   2.0000     -56.396307     -1534.6215 
   6   2.0000     -10.274890      -279.5940 
   7   2.0000     -10.231868      -278.4233 
   8   2.0000     -10.207204      -277.7522 
   9   2.0000     -10.205225      -277.6983 
  10   2.0000      -9.370264      -254.9779 
  11   2.0000      -8.754722      -238.2281 
  12   2.0000      -7.106001      -193.3641 
  13   2.0000      -7.105963      -193.3631 
  14   2.0000      -7.105897      -193.3613 
  15   2.0000      -6.568820      -178.7467 
  16   2.0000      -6.557041      -178.4262 
  17   2.0000      -6.556854      -178.4211 
  18   2.0000      -2.654381       -72.2294 
  19   2.0000      -2.651150       -72.1415 
  20   2.0000      -2.651035       -72.1383 
  21   2.0000      -2.641489       -71.8786 
  22   2.0000      -2.641471       -71.8781 
  23   2.0000      -0.839453       -22.8427 
  24   2.0000      -0.775446       -21.1009 
  25   2.0000      -0.680793       -18.5253 
  26   2.0000      -0.675024       -18.3683 
  27   2.0000      -0.669501       -18.2180 
  28   2.0000      -0.554202       -15.0806 
  29   2.0000      -0.473773       -12.8920 
  30   2.0000      -0.459313       -12.4986 
  31   2.0000      -0.438950       -11.9444 
  32   2.0000      -0.385826       -10.4989 
  33   2.0000      -0.384988       -10.4761 
  34   2.0000      -0.368737       -10.0339 
  35   2.0000      -0.347104        -9.4452 
  36   2.0000      -0.335784        -9.1371 
  37   2.0000      -0.320501        -8.7213 
  38   2.0000      -0.283727        -7.7206 
  39   2.0000      -0.281872        -7.6701 
  40   2.0000      -0.215088        -5.8528 
  41   2.0000      -0.214887        -5.8474 
  42   2.0000      -0.211127        -5.7451 
  43   0.0000       0.022724         0.6184 
  44   0.0000       0.081960         2.2303 
  45   0.0000       0.121890         3.3168 
  46   0.0000       0.123497         3.3605 
  47   0.0000       0.143719         3.9108 
  48   0.0000       0.152549         4.1511 
  49   0.0000       0.155420         4.2292 
  50   0.0000       0.181475         4.9382 
  51   0.0000       0.188477         5.1287 
  52   0.0000       0.210110         5.7174 
  53   0.0000       0.218652         5.9498 
  54   0.0000       0.259238         7.0542 
  55   0.0000       0.264656         7.2017 
  56   0.0000       0.353990         9.6326 
  57   0.0000       0.402208        10.9446 
  58   0.0000       0.422204        11.4888 
  59   0.0000       0.436905        11.8888 
  60   0.0000       0.454394        12.3647 
  61   0.0000       0.474661        12.9162 
  62   0.0000       0.497543        13.5388 
  63   0.0000       0.501859        13.6563 
  64   0.0000       0.548548        14.9267 
  65   0.0000       0.573436        15.6040 
  66   0.0000       0.577510        15.7148 
  67   0.0000       0.596308        16.2264 
  68   0.0000       0.613985        16.7074 
  69   0.0000       0.631761        17.1911 
  70   0.0000       0.633888        17.2490 
  71   0.0000       0.648068        17.6348 
  72   0.0000       0.656698        17.8697 
  73   0.0000       0.670022        18.2322 
  74   0.0000       0.673566        18.3287 
  75   0.0000       0.692552        18.8453 
  76   0.0000       0.709826        19.3153 
  77   0.0000       0.714638        19.4463 
  78   0.0000       0.730580        19.8801 
  79   0.0000       0.735733        20.0203 
  80   0.0000       0.749842        20.4042 
  81   0.0000       0.751720        20.4553 
  82   0.0000       0.769562        20.9408 
  83   0.0000       0.775036        21.0898 
  84   0.0000       0.782302        21.2875 
  85   0.0000       0.857232        23.3265 
  86   0.0000       0.917252        24.9597 
  87   0.0000       0.920857        25.0578 
  88   0.0000       0.926631        25.2149 
  89   0.0000       0.933368        25.3982 
  90   0.0000       0.936366        25.4798 
  91   0.0000       0.945161        25.7191 
  92   0.0000       1.018382        27.7116 
  93   0.0000       1.031799        28.0767 
  94   0.0000       1.072738        29.1907 
  95   0.0000       1.080882        29.4123 
  96   0.0000       1.085805        29.5463 
  97   0.0000       1.101208        29.9654 
  98   0.0000       1.173693        31.9378 
  99   0.0000       1.187092        32.3024 
 100   0.0000       1.211818        32.9752 
 101   0.0000       1.293827        35.2068 
 102   0.0000       1.360030        37.0083 
 103   0.0000       1.457295        39.6550 
 104   0.0000       1.559459        42.4350 
 105   0.0000       1.566143        42.6169 
 106   0.0000       1.588998        43.2388 
 107   0.0000       1.603860        43.6433 
 108   0.0000       1.682534        45.7841 
 109   0.0000       1.746161        47.5154 
 110   0.0000       1.772627        48.2356 
 111   0.0000       1.802723        49.0546 
 112   0.0000       1.810438        49.2645 
 113   0.0000       1.823669        49.6246 
 114   0.0000       1.826716        49.7075 
 115   0.0000       1.855749        50.4975 
 116   0.0000       1.878007        51.1032 
 117   0.0000       1.885000        51.2935 
 118   0.0000       1.897805        51.6419 
 119   0.0000       1.947407        52.9916 
 120   0.0000       1.968038        53.5530 
 121   0.0000       1.977575        53.8126 
 122   0.0000       1.995873        54.3105 
 123   0.0000       2.078517        56.5593 
 124   0.0000       2.094463        56.9932 
 125   0.0000       2.155992        58.6675 
 126   0.0000       2.277620        61.9772 
 127   0.0000       2.290322        62.3228 
 128   0.0000       2.310080        62.8605 
 129   0.0000       2.362140        64.2771 
 130   0.0000       2.410906        65.6041 
 131   0.0000       2.437043        66.3153 
 132   0.0000       2.493371        67.8481 
 133   0.0000       2.597468        70.6807 
 134   0.0000       2.614948        71.1564 
 135   0.0000       2.670355        72.6640 
 136   0.0000       2.673390        72.7466 
 137   0.0000       2.756593        75.0107 
 138   0.0000       2.873345        78.1877 
 139   0.0000       2.908196        79.1360 
 140   0.0000       2.932440        79.7958 
 141   0.0000       2.961072        80.5749 
 142   0.0000       2.977508        81.0221 
 143   0.0000       3.044336        82.8406 
 144   0.0000       3.078817        83.7789 
 145   0.0000       3.108726        84.5927 
 146   0.0000       3.491671        95.0132 
 147   0.0000       3.499318        95.2213 
 148   0.0000       3.594019        97.7982 
 149   0.0000       3.596082        97.8544 
 150   0.0000       3.818345       103.9024 

                    ********************************
                    * MULLIKEN POPULATION ANALYSIS *
                    ********************************

-----------------------
MULLIKEN ATOMIC CHARGES
-----------------------
   0 C :   -0.048960
   1 C :   -0.179176
   2 C :   -0.050489
   3 C :   -0.049494
   4 Br:   -0.220296
   5 H :    0.014154
   6 H :    0.032039
   7 H :    0.031863
   8 H :    0.040110
   9 H :    0.032194
  10 H :    0.031562
  11 H :    0.018563
  12 H :    0.098506
  13 H :    0.100784
  14 Cl:   -0.851361
Sum of atomic charges:   -1.0000000

--------------------------------
MULLIKEN REDUCED ORBITAL CHARGES
--------------------------------
  0 C s       :     3.024519  s :     3.024519
      pz      :     0.995483  p :     2.997643
      px      :     1.009990
      py      :     0.992170
      dz2     :     0.003935  d :     0.026798
      dxz     :     0.007871
      dyz     :     0.005487
      dx2y2   :     0.001709
      dxy     :     0.007796
  1 C s       :     3.126496  s :     3.126496
      pz      :     0.984301  p :     3.006774
      px      :     0.987291
      py      :     1.035182
      dz2     :     0.008509  d :     0.045906
      dxz     :     0.012205
      dyz     :     0.009027
      dx2y2   :     0.005634
      dxy     :     0.010530
  2 C s       :     3.029912  s :     3.029912
      pz      :     1.020258  p :     2.993685
      px      :     1.002473
      py      :     0.970954
      dz2     :     0.002713  d :     0.026892
      dxz     :     0.007165
      dyz     :     0.006078
      dx2y2   :     0.003408
      dxy     :     0.007527
  3 C s       :     3.132002  s :     3.132002
      pz      :     1.041697  p :     2.881690
      px      :     0.885467
      py      :     0.954525
      dz2     :     0.006933  d :     0.035802
      dxz     :     0.008253
      dyz     :     0.006071
      dx2y2   :     0.004684
      dxy     :     0.009862
  4 Brs       :     7.971621  s :     7.971621
      pz      :     5.944646  p :    17.206732
      px      :     5.553270
      py      :     5.708816
      dz2     :     2.005771  d :    10.041942
      dxz     :     2.006717
      dyz     :     2.003921
      dx2y2   :     2.009097
      dxy     :     2.016437
  5 H s       :     0.959761  s :     0.959761
      pz      :     0.007843  p :     0.026085
      px      :     0.012440
      py      :     0.005802
  6 H s       :     0.944116  s :     0.944116
      pz      :     0.006412  p :     0.023845
      px      :     0.008322
      py      :     0.009111
  7 H s       :     0.944619  s :     0.944619
      pz      :     0.004780  p :     0.023517
      px      :     0.008135
      py      :     0.010602
  8 H s       :     0.937849  s :     0.937849
      pz      :     0.004607  p :     0.022041
      px      :     0.008798
      py      :     0.008637
  9 H s       :     0.944279  s :     0.944279
      pz      :     0.010707  p :     0.023527
      px      :     0.006757
      py      :     0.006064
 10 H s       :     0.944551  s :     0.944551
      pz      :     0.006896  p :     0.023888
      px      :     0.008067
      py      :     0.008925
 11 H s       :     0.956044  s :     0.956044
      pz      :     0.009250  p :     0.025393
      px      :     0.009972
      py      :     0.006171
 12 H s       :     0.878701  s :     0.878701
      pz      :     0.010653  p :     0.022793
      px      :     0.006106
      py      :     0.006034
 13 H s       :     0.876494  s :     0.876494
      pz      :     0.004883  p :     0.022722
      px      :     0.005646
      py      :     0.012192
 14 Cls       :     5.991495  s :     5.991495
      pz      :     3.976694  p :    11.859540
      px      :     3.931216
      py      :     3.951630
      dz2     :     0.000068  d :     0.000326
      dxz     :     0.000028
      dyz     :     0.000030
      dx2y2   :     0.000143
      dxy     :     0.000057


                     *******************************
                     * LOEWDIN POPULATION ANALYSIS *
                     *******************************

----------------------
LOEWDIN ATOMIC CHARGES
----------------------
   0 C :   -0.080566
   1 C :   -0.068423
   2 C :   -0.076828
   3 C :   -0.068156
   4 Br:   -0.046408
   5 H :    0.005413
   6 H :    0.017640
   7 H :    0.023653
   8 H :    0.035308
   9 H :    0.024440
  10 H :    0.019023
  11 H :    0.009927
  12 H :    0.037744
  13 H :    0.038089
  14 Cl:   -0.870856

-------------------------------
LOEWDIN REDUCED ORBITAL CHARGES
-------------------------------
  0 C s       :     2.847195  s :     2.847195
      pz      :     1.046515  p :     3.163413
      px      :     1.062527
      py      :     1.054372
      dz2     :     0.010085  d :     0.069958
      dxz     :     0.020515
      dyz     :     0.014799
      dx2y2   :     0.003853
      dxy     :     0.020706
  1 C s       :     2.843802  s :     2.843802
      pz      :     1.029284  p :     3.116157
      px      :     1.036242
      py      :     1.050631
      dz2     :     0.019520  d :     0.108465
      dxz     :     0.031288
      dyz     :     0.020090
      dx2y2   :     0.011574
      dxy     :     0.025993
  2 C s       :     2.847051  s :     2.847051
      pz      :     1.068677  p :     3.159659
      px      :     1.059745
      py      :     1.031237
      dz2     :     0.007168  d :     0.070119
      dxz     :     0.019130
      dyz     :     0.015457
      dx2y2   :     0.007625
      dxy     :     0.020739
  3 C s       :     2.916997  s :     2.916997
      pz      :     1.076951  p :     3.066649
      px      :     0.972578
      py      :     1.017120
      dz2     :     0.015632  d :     0.084510
      dxz     :     0.021712
      dyz     :     0.013847
      dx2y2   :     0.010788
      dxy     :     0.022531
  4 Brs       :     7.829630  s :     7.829630
      pz      :     5.924049  p :    17.164209
      px      :     5.542775
      py      :     5.697385
      dz2     :     2.008062  d :    10.052570
      dxz     :     2.007887
      dyz     :     2.004718
      dx2y2   :     2.010211
      dxy     :     2.021693
  5 H s       :     0.919330  s :     0.919330
      pz      :     0.024916  p :     0.075258
      px      :     0.034659
      py      :     0.015682
  6 H s       :     0.914992  s :     0.914992
      pz      :     0.019537  p :     0.067368
      px      :     0.022533
      py      :     0.025298
  7 H s       :     0.910177  s :     0.910177
      pz      :     0.014703  p :     0.066170
      px      :     0.021974
      py      :     0.029494
  8 H s       :     0.896129  s :     0.896129
      pz      :     0.015178  p :     0.068563
      px      :     0.026788
      py      :     0.026596
  9 H s       :     0.909682  s :     0.909682
      pz      :     0.029733  p :     0.065877
      px      :     0.018703
      py      :     0.017441
 10 H s       :     0.913875  s :     0.913875
      pz      :     0.018238  p :     0.067102
      px      :     0.022818
      py      :     0.026045
 11 H s       :     0.917343  s :     0.917343
      pz      :     0.026360  p :     0.072731
      px      :     0.029016
      py      :     0.017354
 12 H s       :     0.891434  s :     0.891434
      pz      :     0.033673  p :     0.070822
      px      :     0.019720
      py      :     0.017428
 13 H s       :     0.890995  s :     0.890995
      pz      :     0.016214  p :     0.070916
      px      :     0.017525
      py      :     0.037176
 14 Cls       :     5.987853  s :     5.987853
      pz      :     3.980601  p :    11.882672
      px      :     3.940303
      py      :     3.961768
      dz2     :     0.000076  d :     0.000331
      dxz     :     0.000024
      dyz     :     0.000027
      dx2y2   :     0.000150
      dxy     :     0.000053


                      *****************************
                      * MAYER POPULATION ANALYSIS *
                      *****************************

  NA   - Mulliken gross atomic population
  ZA   - Total nuclear charge
  QA   - Mulliken gross atomic charge
  VA   - Mayer's total valence
  BVA  - Mayer's bonded valence
  FA   - Mayer's free valence

  ATOM       NA         ZA         QA         VA         BVA        FA
  0 C      6.0490     6.0000    -0.0490     3.8827     3.8827     0.0000
  1 C      6.1792     6.0000    -0.1792     4.1110     4.1110    -0.0000
  2 C      6.0505     6.0000    -0.0505     3.8933     3.8933    -0.0000
  3 C      6.0495     6.0000    -0.0495     3.8786     3.8786     0.0000
  4 Br    35.2203    35.0000    -0.2203     1.0225     1.0225    -0.0000
  5 H      0.9858     1.0000     0.0142     1.0938     1.0938     0.0000
  6 H      0.9680     1.0000     0.0320     1.0012     1.0012     0.0000
  7 H      0.9681     1.0000     0.0319     0.9869     0.9869     0.0000
  8 H      0.9599     1.0000     0.0401     1.0058     1.0058    -0.0000
  9 H      0.9678     1.0000     0.0322     0.9868     0.9868     0.0000
 10 H      0.9684     1.0000     0.0316     1.0007     1.0007    -0.0000
 11 H      0.9814     1.0000     0.0186     1.0800     1.0800     0.0000
 12 H      0.9015     1.0000     0.0985     0.9725     0.9725     0.0000
 13 H      0.8992     1.0000     0.1008     0.9700     0.9700     0.0000
 14 Cl    17.8514    17.0000    -0.8514     0.2894     0.2894    -0.0000

  Mayer bond orders larger than 0.100000
B(  0-C ,  1-C ) :   1.0554 B(  0-C ,  5-H ) :   0.9363 B(  0-C ,  6-H ) :   0.9614 
B(  0-C ,  7-H ) :   0.9672 B(  1-C ,  2-C ) :   1.0549 B(  1-C ,  3-C ) :   1.0487 
B(  1-C ,  8-H ) :   0.9005 B(  2-C ,  9-H ) :   0.9666 B(  2-C , 10-H ) :   0.9648 
B(  2-C , 11-H ) :   0.9447 B(  3-C ,  4-Br) :   0.9571 B(  3-C , 12-H ) :   0.9481 
B(  3-C , 13-H ) :   0.9468 B(  5-H , 14-Cl) :   0.1429 B( 11-H , 14-Cl) :   0.1239 



------------------
HIRSHFELD ANALYSIS
------------------

Total integrated alpha density =     42.998308815
Total integrated beta density  =     42.998308815

  ATOM     CHARGE      SPIN    
   0 C   -0.093006    0.000000
   1 C   -0.004820    0.000000
   2 C   -0.088479    0.000000
   3 C    0.011880    0.000000
   4 Br  -0.157111    0.000000
   5 H    0.002297    0.000000
   6 H    0.011003    0.000000
   7 H    0.019688    0.000000
   8 H    0.027618    0.000000
   9 H    0.020907    0.000000
  10 H    0.013219    0.000000
  11 H    0.006917    0.000000
  12 H    0.043846    0.000000
  13 H    0.044215    0.000000
  14 Cl  -0.854791    0.000000

  TOTAL  -0.996618    0.000000

-------
TIMINGS
-------

Total SCF time: 0 days 0 hours 0 min 10 sec 

Total time                  ....      10.920 sec
Sum of individual times     ....      10.518 sec  ( 96.3%)

Fock matrix formation       ....       9.663 sec  ( 88.5%)
  Split-RI-J                ....       1.473 sec  ( 15.2% of F)
  Chain of spheres X        ....       5.232 sec  ( 54.1% of F)
  XC integration            ....       0.461 sec  (  4.8% of F)
    Basis function eval.    ....       0.184 sec  ( 39.8% of XC)
    Density eval.           ....       0.082 sec  ( 17.7% of XC)
    XC-Functional eval.     ....       0.039 sec  (  8.5% of XC)
    XC-Potential eval.      ....       0.123 sec  ( 26.6% of XC)
Diagonalization             ....       0.018 sec  (  0.2%)
Density matrix formation    ....       0.003 sec  (  0.0%)
Population analysis         ....       0.038 sec  (  0.3%)
Initial guess               ....       0.155 sec  (  1.4%)
Orbital Transformation      ....       0.000 sec  (  0.0%)
Orbital Orthonormalization  ....       0.000 sec  (  0.0%)
DIIS solution               ....       0.005 sec  (  0.0%)
SOSCF solution              ....       0.006 sec  (  0.1%)
Grid generation             ....       0.631 sec  (  5.8%)


-------------------------------------------------------------------------------
                          DFT DISPERSION CORRECTION                            
                                                                               
                              DFTD3 V3.1  Rev 1                                
                          USING Becke-Johnson damping                          
-------------------------------------------------------------------------------
The PBE0 functional is recognized
Active option DFTDOPT                   ...         4   

molecular C6(AA) [au] = 3073.719044 


            DFT-D V3
 parameters
 s6 scaling factor         :     1.0000 
 a1 scaling factor         :     0.4145 
 s8 scaling factor         :     1.2177 
 a2 scaling factor         :     4.8593 
 ad hoc parameters k1-k3   :    16.0000     1.3333    -4.0000 

 Edisp/kcal,au: -7.849829814797  -0.012509498744 
 E6   /kcal   :  -4.833421496 
 E8   /kcal   :  -3.016408319 
 % E8         :  38.426416754 

-------------------------   ----------------
Dispersion correction           -0.012509499
-------------------------   ----------------


-------------------------   --------------------
FINAL SINGLE POINT ENERGY     -3191.166202334785
-------------------------   --------------------


                            ***************************************
                            *     ORCA property calculations      *
                            ***************************************

                                    ---------------------
                                    Active property flags
                                    ---------------------
   (+) Dipole Moment


------------------------------------------------------------------------------
                       ORCA ELECTRIC PROPERTIES CALCULATION
------------------------------------------------------------------------------

Dipole Moment Calculation                       ... on
Quadrupole Moment Calculation                   ... off
Polarizability Calculation                      ... off
GBWName                                         ... manual_reactants_344_freq.gbw
Electron density file                           ... manual_reactants_344_freq.scfp
The origin for moment calculation is the CENTER OF MASS  = (-0.009889, -0.039327 -0.190340)

-------------
DIPOLE MOMENT
-------------
                                X             Y             Z
Electronic contribution:    -21.91825      11.46516     -10.33377
Nuclear contribution   :     17.06198      -8.95274       6.83768
                        -----------------------------------------
Total Dipole Moment    :     -4.85626       2.51242      -3.49609
                        -----------------------------------------
Magnitude (a.u.)       :      6.48985
Magnitude (Debye)      :     16.49589



--------------------
Rotational spectrum 
--------------------
 
Rotational constants in cm-1:     0.186713     0.014995     0.014702 
Rotational constants in MHz :  5597.528109   449.541988   440.761122 

 Dipole components along the rotational axes: 
x,y,z [a.u.] :    -6.450496     0.193687    -0.686846 
x,y,z [Debye]:   -16.395858     0.492314    -1.745823 

 
[1631721877.666335] [comp0802:140597:0]            sys.c:618  UCX  ERROR shmget(size=2097152 flags=0xfb0) for mm_recv_desc failed: Operation not permitted, please check shared memory limits by 'ipcs -l'
[1631721877.674920] [comp0802:140599:0]            sys.c:618  UCX  ERROR shmget(size=2097152 flags=0xfb0) for mm_recv_desc failed: Operation not permitted, please check shared memory limits by 'ipcs -l'
[1631721877.689187] [comp0802:140602:0]            sys.c:618  UCX  ERROR shmget(size=2097152 flags=0xfb0) for mm_recv_desc failed: Operation not permitted, please check shared memory limits by 'ipcs -l'
[1631721877.694522] [comp0802:140598:0]            sys.c:618  UCX  ERROR shmget(size=2097152 flags=0xfb0) for mm_recv_desc failed: Operation not permitted, please check shared memory limits by 'ipcs -l'
[1631721877.710908] [comp0802:140597:0]            sys.c:618  UCX  ERROR shmget(size=2097152 flags=0xb80) for ucp_am_bufs failed: Operation not permitted, please check shared memory limits by 'ipcs -l'
[1631721877.711712] [comp0802:140599:0]            sys.c:618  UCX  ERROR shmget(size=2097152 flags=0xb80) for ucp_am_bufs failed: Operation not permitted, please check shared memory limits by 'ipcs -l'


           ************************************************************
           *        Program running with 4 parallel MPI-processes     *
           *              working on a common directory               *
           ************************************************************
[1631721877.731245] [comp0802:140598:0]            sys.c:618  UCX  ERROR shmget(size=2097152 flags=0xb80) for ucp_am_bufs failed: Operation not permitted, please check shared memory limits by 'ipcs -l'

-------------------------------------------------------------------------------
                               ORCA SCF HESSIAN
-------------------------------------------------------------------------------

Hessian of the Kohn-Sham DFT energy:
Kohn-Sham wavefunction type                      ... RKS
Hartree-Fock exchange scaling                    ...    0.250
Number of operators                              ...    1
Number of atoms                                  ...   15
Basis set dimensions                             ...  151
Integral neglect threshold                       ... 1.0e-10
Integral primitive cutoff                        ... 1.0e-11

Setting up DFT Hessian calculations              ... 
Electron density on the grid                     ... found on disk
Electron density on the final grid               ... found on disk
Building xc-kernel on the grid                   ... done   (      0.0 sec)
Building xc-kernel on the final grid             ... done   (      0.0 sec)
[1631721877.789781] [comp0802:140602:0]            sys.c:618  UCX  ERROR shmget(size=2097152 flags=0xb80) for ucp_am_bufs failed: Operation not permitted, please check shared memory limits by 'ipcs -l'
                                                     done   (      0.1 sec)

Nuclear repulsion Hessian                        ... done   (      0.0 sec)

----------------------------------------------
Forming right-hand sides of CP-SCF equations     ...
----------------------------------------------
One electron integral derivatives                ... done   (      6.8 sec)
Transforming the overlap derivative matrices     ... done   (      0.0 sec)
[1631721885.988996] [comp0802:140602:0]            sys.c:618  UCX  ERROR shmget(size=6291456 flags=0xfb0) for mm_recv_desc failed: Operation not permitted, please check shared memory limits by 'ipcs -l'
[1631721885.990281] [comp0802:140599:0]            sys.c:618  UCX  ERROR shmget(size=6291456 flags=0xfb0) for mm_recv_desc failed: Operation not permitted, please check shared memory limits by 'ipcs -l'
[1631721885.992575] [comp0802:140597:0]            sys.c:618  UCX  ERROR shmget(size=6291456 flags=0xfb0) for mm_recv_desc failed: Operation not permitted, please check shared memory limits by 'ipcs -l'
Adding tr(S(x)F(y) C-PCM term to the hessian     ... done   (      1.0 sec)
Making the Q(x) pseudodensities                  ... done   (      0.0 sec)
Adding the E*S(x)*S(y) terms to the Hessian      ... done   (      0.0 sec)
Calculating energy weighted overlap derivatives  ... done   (      0.0 sec)
Two electron integral derivatives (RI)           ... done   (      2.9 sec)
Exchange-correlation integral derivatives        ... done   (      5.4 sec)
tr(F(y)Q(x)) contribution to the Hessian         ... done   (      0.0 sec)
Response fock operator R(S(x)) (RIJCOSX)         ... done   (      4.2 sec)
XC Response fock operator R(S(x))                ... done   (      1.9 sec)
tr(F(y)S(x)) contribution to the Hessian         ... done   (      0.0 sec)
Transforming and finalizing RHSs                 ... done   (      0.0 sec)

----------------------------------------------
Solving the CP-SCF equations (RIJCOSX)           ...
----------------------------------------------
     CP-SCF ITERATION   0: 
     CP-SCF ITERATION   1:      0.000475375360
     CP-SCF ITERATION   2:      0.000049390938
     CP-SCF ITERATION   3:      0.000005124638
     CP-SCF ITERATION   4:      0.000000948807

                                                 ... done   (     15.7 sec)
Forming perturbed density Hessian contributions  ... done   (      0.0 sec)
Calculating [Q*(d^2 A/dXdY)*Q  ] C-PCM term      ... done   (      0.0 sec)
Calculating [d^2(V_N)/(dXdY)*Q ] C-PCM term      ... done   (      0.0 sec)
Calculating [d^2(V_el)/(dXdY)*Q] C-PCM term      ... done   (      0.4 sec)
Calculating C-PCM term that depends on dQ/dX     ... done   (      0.0 sec)
2nd integral derivative contribs (RI)            ... done   (     14.9 sec)
Exchange-correlation Hessian                     ... done   (      5.8 sec)
Dispersion correction in the Hessian             ... done   (      0.8 sec)
Dipol derivatives                                ... done   (      0.2 sec)

Total SCF Hessian time: 0 days 0 hours 1 min 1 sec 

Writing the Hessian file to the disk             ... done


Maximum memory used throughout the entire calculation: 146.2 MB

-----------------------
VIBRATIONAL FREQUENCIES
-----------------------

Scaling factor for frequencies =  1.000000000  (already applied!)

   0:         0.00 cm**-1
   1:         0.00 cm**-1
   2:         0.00 cm**-1
   3:         0.00 cm**-1
   4:         0.00 cm**-1
   5:         0.00 cm**-1
   6:       -45.23 cm**-1 ***imaginary mode***
   7:        50.66 cm**-1
   8:        92.05 cm**-1
   9:       133.10 cm**-1
  10:       188.27 cm**-1
  11:       260.12 cm**-1
  12:       283.70 cm**-1
  13:       366.31 cm**-1
  14:       374.50 cm**-1
  15:       473.13 cm**-1
  16:       621.66 cm**-1
  17:       818.61 cm**-1
  18:       855.93 cm**-1
  19:       933.31 cm**-1
  20:       984.24 cm**-1
  21:       993.29 cm**-1
  22:      1067.11 cm**-1
  23:      1081.83 cm**-1
  24:      1202.62 cm**-1
  25:      1210.77 cm**-1
  26:      1252.05 cm**-1
  27:      1320.57 cm**-1
  28:      1332.55 cm**-1
  29:      1375.98 cm**-1
  30:      1376.64 cm**-1
  31:      1429.60 cm**-1
  32:      1437.11 cm**-1
  33:      1462.74 cm**-1
  34:      1464.11 cm**-1
  35:      1475.66 cm**-1
  36:      3031.71 cm**-1
  37:      3034.41 cm**-1
  38:      3036.79 cm**-1
  39:      3112.67 cm**-1
  40:      3130.19 cm**-1
  41:      3133.13 cm**-1
  42:      3145.12 cm**-1
  43:      3149.19 cm**-1
  44:      3192.80 cm**-1


------------
NORMAL MODES
------------

These modes are the Cartesian displacements weighted by the diagonal matrix
M(i,i)=1/sqrt(m[i]) where m[i] is the mass of the displaced atom
Thus, these vectors are normalized but *not* orthogonal

                  0          1          2          3          4          5    
      0       0.000000   0.000000   0.000000   0.000000   0.000000   0.000000
      1       0.000000   0.000000   0.000000   0.000000   0.000000   0.000000
      2       0.000000   0.000000   0.000000   0.000000   0.000000   0.000000
      3       0.000000   0.000000   0.000000   0.000000   0.000000   0.000000
      4       0.000000   0.000000   0.000000   0.000000   0.000000   0.000000
      5       0.000000   0.000000   0.000000   0.000000   0.000000   0.000000
      6       0.000000   0.000000   0.000000   0.000000   0.000000   0.000000
      7       0.000000   0.000000   0.000000   0.000000   0.000000   0.000000
      8       0.000000   0.000000   0.000000   0.000000   0.000000   0.000000
      9       0.000000   0.000000   0.000000   0.000000   0.000000   0.000000
     10       0.000000   0.000000   0.000000   0.000000   0.000000   0.000000
     11       0.000000   0.000000   0.000000   0.000000   0.000000   0.000000
     12       0.000000   0.000000   0.000000   0.000000   0.000000   0.000000
     13       0.000000   0.000000   0.000000   0.000000   0.000000   0.000000
     14       0.000000   0.000000   0.000000   0.000000   0.000000   0.000000
     15       0.000000   0.000000   0.000000   0.000000   0.000000   0.000000
     16       0.000000   0.000000   0.000000   0.000000   0.000000   0.000000
     17       0.000000   0.000000   0.000000   0.000000   0.000000   0.000000
     18       0.000000   0.000000   0.000000   0.000000   0.000000   0.000000
     19       0.000000   0.000000   0.000000   0.000000   0.000000   0.000000
     20       0.000000   0.000000   0.000000   0.000000   0.000000   0.000000
     21       0.000000   0.000000   0.000000   0.000000   0.000000   0.000000
     22       0.000000   0.000000   0.000000   0.000000   0.000000   0.000000
     23       0.000000   0.000000   0.000000   0.000000   0.000000   0.000000
     24       0.000000   0.000000   0.000000   0.000000   0.000000   0.000000
     25       0.000000   0.000000   0.000000   0.000000   0.000000   0.000000
     26       0.000000   0.000000   0.000000   0.000000   0.000000   0.000000
     27       0.000000   0.000000   0.000000   0.000000   0.000000   0.000000
     28       0.000000   0.000000   0.000000   0.000000   0.000000   0.000000
     29       0.000000   0.000000   0.000000   0.000000   0.000000   0.000000
     30       0.000000   0.000000   0.000000   0.000000   0.000000   0.000000
     31       0.000000   0.000000   0.000000   0.000000   0.000000   0.000000
     32       0.000000   0.000000   0.000000   0.000000   0.000000   0.000000
     33       0.000000   0.000000   0.000000   0.000000   0.000000   0.000000
     34       0.000000   0.000000   0.000000   0.000000   0.000000   0.000000
     35       0.000000   0.000000   0.000000   0.000000   0.000000   0.000000
     36       0.000000   0.000000   0.000000   0.000000   0.000000   0.000000
     37       0.000000   0.000000   0.000000   0.000000   0.000000   0.000000
     38       0.000000   0.000000   0.000000   0.000000   0.000000   0.000000
     39       0.000000   0.000000   0.000000   0.000000   0.000000   0.000000
     40       0.000000   0.000000   0.000000   0.000000   0.000000   0.000000
     41       0.000000   0.000000   0.000000   0.000000   0.000000   0.000000
     42       0.000000   0.000000   0.000000   0.000000   0.000000   0.000000
     43       0.000000   0.000000   0.000000   0.000000   0.000000   0.000000
     44       0.000000   0.000000   0.000000   0.000000   0.000000   0.000000
                  6          7          8          9         10         11    
      0      -0.063791  -0.174644  -0.027594  -0.159375   0.255466   0.040824
      1       0.166974  -0.219602   0.050686   0.091973  -0.142937  -0.038190
      2       0.225497   0.044006   0.114188  -0.006310   0.095531   0.013673
      3       0.005103  -0.134111  -0.129282  -0.008931   0.085881   0.005903
      4       0.093059  -0.184629   0.096493  -0.021480  -0.024830  -0.007056
      5       0.227424   0.084352   0.080630   0.019610   0.062933   0.005105
      6      -0.057758  -0.145601  -0.102204   0.189824   0.187450  -0.025440
      7       0.146587  -0.196750   0.074687  -0.164053  -0.095754   0.011706
      8       0.185431   0.145407   0.094610   0.057046   0.080699  -0.002513
      9       0.086040  -0.089194  -0.146003   0.080070   0.000740   0.001645
     10      -0.029489  -0.140486   0.068026   0.123246   0.010524  -0.001171
     11       0.142768   0.058880   0.076223  -0.027864   0.126014   0.008534
     12       0.019219   0.059294  -0.199590  -0.031684  -0.070097  -0.003623
     13      -0.042582   0.071791   0.108779  -0.019145   0.035437   0.004730
     14      -0.061282  -0.029566  -0.178689  -0.001149  -0.054274  -0.003447
     15      -0.102889  -0.198556   0.023980  -0.244117   0.361519   0.073896
     16       0.204575  -0.205395   0.044649  -0.053117  -0.109803  -0.346042
     17       0.286549   0.078144   0.057968   0.016302  -0.007780  -0.177025
     18      -0.098120  -0.215963  -0.000852  -0.024947   0.239777   0.332088
     19       0.191091  -0.244677   0.023614   0.212179  -0.222887   0.044162
     20       0.146676   0.029015   0.188672  -0.013498   0.196783   0.261680
     21      -0.039945  -0.137339  -0.027929  -0.321648   0.304622  -0.244986
     22       0.144213  -0.233826   0.041410   0.218002  -0.184783   0.185047
     23       0.240840   0.005995   0.147886  -0.023749   0.110799  -0.023176
     24       0.063724  -0.121473  -0.146504  -0.114035   0.031134   0.017012
     25       0.085761  -0.173142   0.111272  -0.137865  -0.006355   0.011028
     26       0.361749   0.085708   0.008881   0.048592  -0.092875  -0.009880
     27      -0.029791  -0.145761  -0.160236   0.328661   0.060615   0.309031
     28       0.103782  -0.155207   0.132049  -0.271559   0.001146  -0.238840
     29       0.178766   0.166267   0.093397   0.078311   0.059632   0.054465
     30      -0.101890  -0.156701  -0.064913   0.304861   0.296112  -0.132396
     31       0.158072  -0.222568   0.044248  -0.034938  -0.132198   0.171885
     32       0.106012   0.171410   0.194751   0.005987   0.291256  -0.409599
     33      -0.075188  -0.146572  -0.047395   0.092958   0.284540  -0.276012
     34       0.221412  -0.230062   0.044009  -0.307493  -0.228162   0.126990
     35       0.234844   0.131899   0.025580   0.100306  -0.080980   0.316686
     36       0.133269  -0.015611  -0.108021   0.136902  -0.010125   0.003080
     37      -0.080674  -0.241250  -0.006974   0.265732  -0.028538  -0.000953
     38       0.143222   0.048358   0.058831   0.083820   0.098596   0.009244
     39       0.136706  -0.195070  -0.133542   0.148282  -0.005485  -0.000813
     40      -0.069146  -0.098186   0.044728   0.150612   0.001253   0.001157
     41       0.181770   0.092461   0.126014  -0.205863   0.162576   0.006278
     42      -0.029767   0.088419   0.605968   0.028264  -0.065854  -0.001905
     43      -0.059070   0.140706  -0.356985   0.031908   0.031730   0.002395
     44      -0.179987  -0.069072   0.253187  -0.014368  -0.022383  -0.001448
                 12         13         14         15         16         17    
      0       0.001080  -0.046610   0.114752   0.008890   0.024318   0.068084
      1      -0.019671   0.033312   0.141048  -0.039493   0.037661   0.113633
      2      -0.006390  -0.137517   0.021363   0.042151  -0.078768  -0.153911
      3       0.018067   0.069421  -0.012077  -0.235172   0.105553  -0.107988
      4      -0.010314   0.087245  -0.037638   0.189475  -0.091276   0.109539
      5       0.012936  -0.030919  -0.124127   0.003659  -0.025737   0.045401
      6       0.022764   0.104126  -0.070754   0.049316  -0.045120  -0.146561
      7      -0.007030   0.040873  -0.096023   0.016107  -0.056300  -0.154936
      8      -0.015508   0.095574   0.140140   0.016996  -0.026375  -0.041226
      9       0.014659  -0.076553  -0.053230  -0.213230  -0.177048   0.171641
     10       0.001574  -0.125160  -0.016711   0.141324   0.230940  -0.033071
     11       0.012754   0.048003  -0.104815  -0.012646   0.284928   0.150755
     12      -0.010948  -0.005004   0.003630   0.054717   0.027383  -0.005337
     13       0.007920   0.000051  -0.001630  -0.042242  -0.027193   0.003579
     14       0.001604   0.002209   0.002597  -0.008650  -0.020375   0.003161
     15      -0.018609  -0.166337   0.227111   0.227061  -0.159755   0.213101
     16       0.332948  -0.093337   0.357428   0.023364   0.035452   0.096072
     17       0.191481  -0.069175   0.004862  -0.166876   0.120005  -0.326894
     18      -0.358398  -0.060981   0.165050  -0.078261   0.040623   0.043276
     19      -0.155928   0.029086   0.254276  -0.290775   0.221727  -0.040399
     20      -0.260883  -0.150088  -0.079554   0.300476  -0.323069   0.031407
     21       0.357306  -0.084177   0.113752   0.187793  -0.086788   0.189768
     22      -0.287917   0.115775   0.039363  -0.166629   0.118606   0.063851
     23       0.008526  -0.303787   0.334831   0.023587  -0.074548  -0.258390
     24       0.019635   0.078720  -0.015257  -0.280921  -0.051675  -0.098987
     25      -0.014155   0.093698  -0.036666   0.191756  -0.091751   0.102799
     26       0.025940  -0.027057  -0.130446  -0.091727  -0.311001   0.056864
     27       0.304701   0.247943   0.153081   0.217277  -0.132635  -0.134354
     28      -0.251263   0.060643   0.069004  -0.166212   0.055983  -0.332921
     29       0.015132   0.186421   0.352697   0.015074  -0.016233  -0.121297
     30      -0.033314   0.127251  -0.186866   0.351468  -0.299917   0.043588
     31       0.160806   0.059755  -0.192416   0.251690  -0.212176  -0.025496
     32      -0.365277   0.096116   0.139009   0.046971  -0.116606  -0.001289
     33      -0.184469   0.002076  -0.253141  -0.033278  -0.030558  -0.139604
     34       0.077825  -0.094496  -0.240124  -0.276798   0.183938  -0.334362
     35       0.243809   0.150132   0.277152  -0.015302   0.055336  -0.127945
     36       0.011551  -0.258794  -0.078250  -0.138617  -0.188284   0.251505
     37       0.014735  -0.405440  -0.022775   0.043804   0.169462  -0.123908
     38       0.018396  -0.213484  -0.124173  -0.023010   0.247867   0.154894
     39       0.010861  -0.167512  -0.075350  -0.114682  -0.142737   0.202775
     40       0.007990  -0.221374  -0.010658   0.077826   0.229577  -0.093867
     41       0.000880   0.455837  -0.092038   0.018829   0.246121   0.299562
     42       0.002402   0.002220  -0.002386  -0.000728  -0.000541   0.000814
[...]
     14       0.000125   0.000382   0.000012  -0.000005   0.000033  -0.000072
     15       0.296241  -0.019604   0.207346  -0.188735   0.060719   0.079226
     16       0.026174   0.047734   0.066768  -0.125345  -0.389135   0.530938
     17      -0.258583   0.047923  -0.149162   0.131456  -0.252156   0.190120
     18      -0.038905  -0.034567  -0.383794   0.302279  -0.234928   0.078187
     19       0.201685  -0.071648  -0.252269   0.243487   0.009706  -0.145416
     20      -0.269633   0.037616  -0.137201   0.062660  -0.274834   0.267252
     21       0.036510  -0.071002  -0.374310   0.337532   0.015603  -0.221781
     22       0.054341   0.052505   0.248076  -0.219882  -0.080341   0.228682
     23      -0.297846   0.022923   0.126177  -0.120488   0.285627  -0.289485
     24       0.107835  -0.015620  -0.006253   0.024620  -0.063465   0.017852
     25       0.045904   0.014839  -0.008305  -0.010051  -0.068883  -0.016982
     26       0.069407  -0.013810   0.001571   0.101988  -0.012189  -0.036127
     27      -0.179147  -0.072851   0.268264   0.059631  -0.371122  -0.298435
     28      -0.208982   0.078698  -0.361479  -0.361612   0.112281   0.038687
     29      -0.251673   0.005085  -0.050673  -0.182929  -0.168543  -0.170743
     30      -0.375938   0.074082  -0.065339   0.036909   0.257310   0.190631
     31      -0.176686   0.055093  -0.265873  -0.241927   0.112730   0.065557
     32      -0.138649  -0.016167   0.369246   0.450444   0.105102   0.120695
     33      -0.081490  -0.045555   0.056843  -0.113534  -0.359622  -0.295748
     34      -0.476414   0.030350   0.242367   0.286627  -0.027471  -0.022618
     35      -0.039715   0.065917  -0.003460   0.226423   0.381127   0.323512
     36      -0.000734  -0.289910   0.020507  -0.010129   0.045933   0.039187
     37      -0.096939  -0.487009  -0.012398  -0.036773   0.017782   0.066946
     38      -0.047587  -0.391741   0.010759  -0.010269   0.032676   0.053331
     39       0.111603   0.183215  -0.015190   0.010368  -0.032526  -0.016808
     40      -0.027460   0.172523   0.011429   0.021607   0.001937  -0.029124
     41      -0.044915  -0.634478  -0.021536  -0.038783   0.016339   0.093683
     42       0.000580   0.000005   0.000118  -0.000179   0.000326   0.000090
     43      -0.000458  -0.000022   0.000130   0.000349   0.000185  -0.000318
     44       0.000279  -0.000047  -0.000035  -0.000128  -0.000119  -0.000299
                 36         37         38         39         40         41    
      0      -0.019794   0.007785   0.006581   0.000653  -0.000006  -0.003538
      1      -0.016029   0.003769   0.010897   0.000684  -0.013246  -0.081982
      2       0.036449  -0.014665  -0.012506   0.001706  -0.006888  -0.041365
      3       0.009213  -0.024458   0.046706   0.004566  -0.003331   0.004027
      4      -0.007410   0.026697  -0.047800  -0.003589   0.003189  -0.004957
      5      -0.005102   0.013632  -0.022969   0.000003   0.002512  -0.003008
      6      -0.012192  -0.019915  -0.013751  -0.000226  -0.047119   0.006497
      7      -0.018090  -0.035930  -0.014239   0.000564   0.007644   0.000031
      8      -0.003007  -0.008801   0.000035   0.002153   0.078766  -0.012523
      9      -0.000035  -0.000259   0.001655   0.001853   0.000142   0.000478
     10       0.000133  -0.000768   0.000093  -0.020946   0.000756   0.000165
     11       0.000651  -0.002015   0.002813  -0.065098   0.000787  -0.001005
     12      -0.000014   0.000070  -0.000132  -0.000022  -0.000005  -0.000005
     13       0.000025  -0.000038   0.000103   0.000046  -0.000023  -0.000007
     14      -0.000017   0.000013   0.000017   0.000087  -0.000005   0.000030
     15      -0.352167   0.124350   0.147221  -0.009381   0.000175   0.014476
     16       0.156792  -0.057260  -0.061223   0.005566  -0.001895  -0.018873
     17      -0.313907   0.111668   0.129535  -0.010267  -0.000806   0.006794
     18       0.303672  -0.124411  -0.092077   0.005479  -0.062716  -0.393449
     19      -0.364510   0.147183   0.110589  -0.005905   0.073863   0.444740
     20      -0.244318   0.099001   0.077187  -0.003463   0.048074   0.303864
     21       0.279947  -0.092840  -0.130042  -0.005219   0.065834   0.416655
     22       0.389962  -0.130208  -0.176653  -0.007271   0.086731   0.555451
     23       0.135058  -0.042337  -0.062519  -0.003717   0.029666   0.187080
     24      -0.101875   0.303225  -0.563866  -0.039539   0.034878  -0.046170
     25       0.101886  -0.313006   0.577133   0.039542  -0.036117   0.047499
     26       0.050862  -0.151681   0.276277   0.016545  -0.017872   0.023611
     27       0.123490   0.220454   0.116460   0.003737   0.319899  -0.052509
     28       0.110191   0.196509   0.107553   0.003258   0.302801  -0.048665
     29      -0.225005  -0.393613  -0.215038  -0.009215  -0.581060   0.093735
     30      -0.145607  -0.296115  -0.099391   0.009234   0.370424  -0.051292
     31       0.166652   0.342446   0.117130  -0.010520  -0.444474   0.065308
     32       0.106810   0.216206   0.075824  -0.005894  -0.263083   0.037179
     33       0.163811   0.301011   0.143019  -0.010421  -0.126784   0.027018
     34      -0.066626  -0.120326  -0.060434   0.002452   0.048001  -0.010246
     35       0.153570   0.278333   0.137684  -0.008374  -0.098617   0.021849
     36       0.005449  -0.014653   0.015184  -0.339059   0.002968  -0.005327
     37       0.004695  -0.012989   0.015686  -0.325714   0.003638  -0.004851
     38      -0.007191   0.018782  -0.023713   0.560403  -0.008301   0.010293
     39      -0.003587   0.012831  -0.017167   0.305684  -0.005143   0.002638
     40      -0.006996   0.025866  -0.029285   0.572214  -0.010431   0.003762
     41      -0.001256   0.005303  -0.007901   0.187040  -0.004082   0.003357
     42      -0.000008  -0.000010   0.000007  -0.000011   0.000010  -0.000016
     43      -0.000022  -0.000027  -0.000010   0.000006  -0.000016   0.000000
     44       0.000036  -0.000042   0.000001  -0.000008   0.000019  -0.000007
                  42         43         44    
      0      -0.083075   0.016855   0.001279
      1       0.020569  -0.005137  -0.000446
      2      -0.034720   0.006462  -0.000086
      3      -0.001213   0.002622  -0.000408
      4       0.000759  -0.002118  -0.001190
      5      -0.000429   0.000091   0.000373
      6       0.012750   0.061808  -0.000577
      7      -0.010844  -0.053365   0.001090
      8       0.009108   0.042183  -0.000268
      9      -0.000860  -0.000640  -0.053759
     10      -0.001422  -0.000642  -0.076799
     11      -0.000002   0.000505   0.025907
     12       0.000005   0.000001   0.000062
     13       0.000001   0.000017   0.000084
     14      -0.000016   0.000014  -0.000029
     15       0.562600  -0.114686  -0.006818
     16      -0.255653   0.053267   0.003684
     17       0.514734  -0.106360  -0.005730
     18       0.233404  -0.052838  -0.005219
     19      -0.281184   0.061830   0.006199
     20      -0.191966   0.043619   0.004245
     21       0.202399  -0.036761  -0.000795
     22       0.288563  -0.051230  -0.000723
     23       0.095700  -0.016926  -0.002298
     24       0.008017  -0.019965  -0.002086
     25      -0.006684   0.020839   0.004484
     26      -0.002918   0.008600   0.000932
     27       0.024132   0.110334   0.000278
     28       0.018517   0.090095   0.000258
     29      -0.039966  -0.185293   0.002563
     30      -0.057283  -0.281220   0.004877
     31       0.065860   0.331982  -0.005527
     32       0.042454   0.211290  -0.003423
     33      -0.117530  -0.573665   0.006223
     34       0.045906   0.218220  -0.002594
     35      -0.110261  -0.533605   0.004818
     36       0.000759   0.005686   0.307324
     37       0.000681   0.005760   0.291136
     38      -0.000128  -0.010980  -0.523988
     39       0.008665  -0.000593   0.328227
     40       0.015448  -0.000938   0.617965
     41       0.005860  -0.001023   0.216335
     42      -0.000083   0.000077   0.000004
     43       0.000015  -0.000035   0.000002
     44      -0.000055   0.000080  -0.000002


-----------
IR SPECTRUM
-----------

 Mode    freq (cm**-1)   T**2         TX         TY         TZ
-------------------------------------------------------------------
   7:        50.66    9.335331  ( -1.452542  -2.431181   1.146653)
   8:        92.05   25.994221  ( -4.140942   2.403491  -1.752157)
   9:       133.10    0.669132  ( -0.284234  -0.647053   0.411905)
  10:       188.27   15.748614  (  3.214597  -1.814369   1.457068)
  11:       260.12    0.686313  (  0.728284   0.358229  -0.166095)
  12:       283.70    0.825039  ( -0.488484   0.044996  -0.764459)
  13:       366.31    1.701386  ( -0.567685  -1.092882   0.429799)
  14:       374.50    0.130606  ( -0.002522  -0.312953  -0.180720)
  15:       473.13    5.217198  ( -1.943142   1.192786  -0.136596)
  16:       621.66   60.479024  ( -6.365188   4.431957  -0.566716)
  17:       818.61   34.476530  (  4.683885  -3.226282   1.459061)
  18:       855.93    2.548400  (  1.254619   0.938041  -0.307261)
  19:       933.31    0.587620  ( -0.393288  -0.566850   0.334104)
  20:       984.24    2.668410  ( -0.214569  -1.457017   0.706732)
  21:       993.29   15.878583  (  3.384757  -1.536504   1.435674)
  22:      1067.11   22.822006  ( -2.808092   1.010454  -3.730363)
  23:      1081.83    1.272063  ( -0.572865  -0.845741   0.478132)
  24:      1202.62    2.295806  ( -0.435006   0.467679  -1.373991)
  25:      1210.77    1.276352  ( -0.837879  -0.753625  -0.079757)
  26:      1252.05   66.064645  ( -6.122768   5.000941   1.888634)
  27:      1320.57   18.304806  (  3.671554  -2.089804   0.676178)
  28:      1332.55    3.056881  ( -0.315384  -1.595083   0.642747)
  29:      1375.98   17.198512  ( -2.851340  -2.577558   1.557103)
  30:      1376.64   10.150125  (  0.600583  -2.530609  -1.839957)
  31:      1429.60   11.884084  ( -1.878267   0.227932  -2.881709)
  32:      1437.11    0.849141  (  0.531040   0.703612  -0.268454)
  33:      1462.74    2.195837  (  0.546668  -0.106566   1.373184)
  34:      1464.11    0.502790  ( -0.688504   0.168849  -0.015547)
  35:      1475.66   14.522394  ( -2.070934   2.574148   1.899312)
  36:      3031.71   69.810655  ( -6.674651  -4.498304   2.241639)
  37:      3034.41   22.630044  (  0.982431  -4.363080   1.621235)
  38:      3036.79   27.958698  (  2.329293  -3.636907  -3.050574)
  39:      3112.67   17.481232  (  0.894601  -1.836262  -3.648159)
  40:      3130.19   39.748702  ( -4.271690   0.020420   4.636911)
  41:      3133.13   49.487077  (  0.350352  -6.155021  -3.388222)
  42:      3145.12    2.549766  (  0.990291  -1.142425   0.513764)
  43:      3149.19    0.160020  (  0.016646  -0.039683  -0.397704)
  44:      3192.80    4.712103  ( -1.199375  -1.696164   0.629786)

The first frequency considered to be a vibration is 7
The total number of vibrations considered is 38


--------------------------
THERMOCHEMISTRY AT 298.15K
--------------------------

Temperature         ... 298.15 K
Pressure            ... 1.00 atm
Total Mass          ... 172.47 AMU

Throughout the following assumptions are being made:
  (1) The electronic state is orbitally nondegenerate
  (2) There are no thermally accessible electronically excited states
  (3) Hindered rotations indicated by low frequency modes are not
      treated as such but are treated as vibrations and this may
      cause some error
  (4) All equations used are the standard statistical mechanics
      equations for an ideal gas
  (5) All vibrations are strictly harmonic

freq.      50.66  E(vib)   ...       0.52 
freq.      92.05  E(vib)   ...       0.47 
freq.     133.10  E(vib)   ...       0.42 
freq.     188.27  E(vib)   ...       0.36 
freq.     260.12  E(vib)   ...       0.30 
freq.     283.70  E(vib)   ...       0.28 
freq.     366.31  E(vib)   ...       0.22 
freq.     374.50  E(vib)   ...       0.21 
freq.     473.13  E(vib)   ...       0.15 
freq.     621.66  E(vib)   ...       0.09 
freq.     818.61  E(vib)   ...       0.05 
freq.     855.93  E(vib)   ...       0.04 
freq.     933.31  E(vib)   ...       0.03 
freq.     984.24  E(vib)   ...       0.02 
freq.     993.29  E(vib)   ...       0.02 
freq.    1067.11  E(vib)   ...       0.02 
freq.    1081.83  E(vib)   ...       0.02 
freq.    1202.62  E(vib)   ...       0.01 
freq.    1210.77  E(vib)   ...       0.01 
freq.    1252.05  E(vib)   ...       0.01 
freq.    1320.57  E(vib)   ...       0.01 
freq.    1332.55  E(vib)   ...       0.01 
freq.    1375.98  E(vib)   ...       0.01 
freq.    1376.64  E(vib)   ...       0.01 
freq.    1429.60  E(vib)   ...       0.00 
freq.    1437.11  E(vib)   ...       0.00 
freq.    1462.74  E(vib)   ...       0.00 
freq.    1464.11  E(vib)   ...       0.00 
freq.    1475.66  E(vib)   ...       0.00 
freq.    3031.71  E(vib)   ...       0.00 
freq.    3034.41  E(vib)   ...       0.00 
freq.    3036.79  E(vib)   ...       0.00 
freq.    3112.67  E(vib)   ...       0.00 
freq.    3130.19  E(vib)   ...       0.00 
freq.    3133.13  E(vib)   ...       0.00 
freq.    3145.12  E(vib)   ...       0.00 
freq.    3149.19  E(vib)   ...       0.00 
freq.    3192.80  E(vib)   ...       0.00 

------------
INNER ENERGY
------------

The inner energy is: U= E(el) + E(ZPE) + E(vib) + E(rot) + E(trans)
    E(el)   - is the total energy from the electronic structure calculation
              = E(kin-el) + E(nuc-el) + E(el-el) + E(nuc-nuc)
    E(ZPE)  - the the zero temperature vibrational energy from the frequency calculation
    E(vib)  - the the finite temperature correction to E(ZPE) due to population
              of excited vibrational states
    E(rot)  - is the rotational thermal energy
    E(trans)- is the translational thermal energy

Summary of contributions to the inner energy U:
Electronic energy                ...  -3191.16620233 Eh
Zero point energy                ...      0.12275733 Eh      77.03 kcal/mol
Thermal vibrational correction   ...      0.00525059 Eh       3.29 kcal/mol
Thermal rotational correction    ...      0.00141627 Eh       0.89 kcal/mol
Thermal translational correction ...      0.00141627 Eh       0.89 kcal/mol
-----------------------------------------------------------------------
Total thermal energy                  -3191.03536187 Eh


Summary of corrections to the electronic energy:
(perhaps to be used in another calculation)
Total thermal correction                  0.00808313 Eh       5.07 kcal/mol
Non-thermal (ZPE) correction              0.12275733 Eh      77.03 kcal/mol
-----------------------------------------------------------------------
Total correction                          0.13084046 Eh      82.10 kcal/mol


--------
ENTHALPY
--------

The enthalpy is H = U + kB*T
                kB is Boltzmann's constant
Total free energy                 ...  -3191.03536187 Eh 
Thermal Enthalpy correction       ...      0.00094421 Eh       0.59 kcal/mol
-----------------------------------------------------------------------
Total Enthalpy                    ...  -3191.03441766 Eh


Note: Only C1 symmetry has been detected, increase convergence thresholds 
      if your molecule has a higher symmetry. Symmetry factor of 1.0 is   
      used for the rotational entropy correction. 
 

Note: Rotational entropy computed according to Herzberg 
Infrared and Raman Spectra, Chapter V,1, Van Nostrand Reinhold, 1945 
Point Group:  C1, Symmetry Number:   1  
Rotational constants in cm-1:     0.186713     0.014995     0.014702 

Vibrational entropy computed according to the QRRHO of S. Grimme
Chem.Eur.J. 2012 18 9955


-------
ENTROPY
-------

The entropy contributions are T*S = T*(S(el)+S(vib)+S(rot)+S(trans))
     S(el)   - electronic entropy
     S(vib)  - vibrational entropy
     S(rot)  - rotational entropy
     S(trans)- translational entropy
The entropies will be listed as mutliplied by the temperature to get
units of energy

Electronic entropy                ...      0.00000000 Eh      0.00 kcal/mol
Vibrational entropy               ...      0.00925226 Eh      5.81 kcal/mol
Rotational entropy                ...      0.01427797 Eh      8.96 kcal/mol
Translational entropy             ...      0.01964318 Eh     12.33 kcal/mol
-----------------------------------------------------------------------
Final entropy term                ...      0.04317340 Eh     27.09 kcal/mol

In case the symmetry of your molecule has not been determined correctly
or in case you have a reason to use a different symmetry number we print 
out the resulting rotational entropy values for sn=1,12 :
 --------------------------------------------------------
|  sn= 1 | S(rot)=       0.01427797 Eh      8.96 kcal/mol|
|  sn= 2 | S(rot)=       0.01362351 Eh      8.55 kcal/mol|
|  sn= 3 | S(rot)=       0.01324068 Eh      8.31 kcal/mol|
|  sn= 4 | S(rot)=       0.01296905 Eh      8.14 kcal/mol|
|  sn= 5 | S(rot)=       0.01275836 Eh      8.01 kcal/mol|
|  sn= 6 | S(rot)=       0.01258622 Eh      7.90 kcal/mol|
|  sn= 7 | S(rot)=       0.01244067 Eh      7.81 kcal/mol|
|  sn= 8 | S(rot)=       0.01231460 Eh      7.73 kcal/mol|
|  sn= 9 | S(rot)=       0.01220339 Eh      7.66 kcal/mol|
|  sn=10 | S(rot)=       0.01210391 Eh      7.60 kcal/mol|
|  sn=11 | S(rot)=       0.01201392 Eh      7.54 kcal/mol|
|  sn=12 | S(rot)=       0.01193176 Eh      7.49 kcal/mol|
 --------------------------------------------------------


-------------------
GIBBS FREE ENERGY
-------------------

The Gibbs free energy is G = H - T*S

Total enthalpy                    ...  -3191.03441766 Eh 
Total entropy correction          ...     -0.04317340 Eh    -27.09 kcal/mol
-----------------------------------------------------------------------
Final Gibbs free energy         ...  -3191.07759107 Eh

For completeness - the Gibbs free energy minus the electronic energy
G-E(el)                           ...      0.08861127 Eh     55.60 kcal/mol

[1631721940.894083] [comp0802:140644:0]            sys.c:618  UCX  ERROR shmget(size=2097152 flags=0xfb0) for mm_recv_desc failed: Operation not permitted, please check shared memory limits by 'ipcs -l'
[1631721940.895808] [comp0802:140642:0]            sys.c:618  UCX  ERROR shmget(size=2097152 flags=0xfb0) for mm_recv_desc failed: Operation not permitted, please check shared memory limits by 'ipcs -l'
[1631721940.910422] [comp0802:140643:0]            sys.c:618  UCX  ERROR shmget(size=2097152 flags=0xfb0) for mm_recv_desc failed: Operation not permitted, please check shared memory limits by 'ipcs -l'
[1631721940.910693] [comp0802:140645:0]            sys.c:618  UCX  ERROR shmget(size=2097152 flags=0xfb0) for mm_recv_desc failed: Operation not permitted, please check shared memory limits by 'ipcs -l'
[1631721940.931509] [comp0802:140642:0]            sys.c:618  UCX  ERROR shmget(size=2097152 flags=0xb80) for ucp_am_bufs failed: Operation not permitted, please check shared memory limits by 'ipcs -l'
[1631721940.932343] [comp0802:140643:0]            sys.c:618  UCX  ERROR shmget(size=2097152 flags=0xb80) for ucp_am_bufs failed: Operation not permitted, please check shared memory limits by 'ipcs -l'
[1631721940.933246] [comp0802:140644:0]            sys.c:618  UCX  ERROR shmget(size=2097152 flags=0xb80) for ucp_am_bufs failed: Operation not permitted, please check shared memory limits by 'ipcs -l'
[1631721940.944143] [comp0802:140645:0]            sys.c:618  UCX  ERROR shmget(size=2097152 flags=0xb80) for ucp_am_bufs failed: Operation not permitted, please check shared memory limits by 'ipcs -l'

Timings for individual modules:

Sum of individual times         ...       77.148 sec (=   1.286 min)
GTO integral calculation        ...        1.169 sec (=   0.019 min)   1.5 %
SCF iterations                  ...       11.868 sec (=   0.198 min)  15.4 %
Analytical frequency calculation...       64.111 sec (=   1.069 min)  83.1 %
                             ****ORCA TERMINATED NORMALLY****
TOTAL RUN TIME: 0 days 0 hours 1 minutes 18 seconds 714 msec
