
                                 *****************
                                 * O   R   C   A *
                                 *****************

           --- An Ab Initio, DFT and Semiempirical electronic structure package ---

                  #######################################################
                  #                        -***-                        #
                  #          Department of theory and spectroscopy      #
                  #               Directorship: Frank Neese             #
                  #        Max Planck Institute fuer Kohlenforschung    #
                  #                Kaiser Wilhelm Platz 1               #
                  #                 D-45470 Muelheim/Ruhr               #
                  #                      Germany                        #
                  #                                                     #
                  #                  All rights reserved                #
                  #                        -***-                        #
                  #######################################################


                         Program Version 4.2.1 -  RELEASE  -


 With contributions from (in alphabetic order):
   Daniel Aravena         : Magnetic Suceptibility
   Michael Atanasov       : Ab Initio Ligand Field Theory (pilot matlab implementation)
   Alexander A. Auer      : GIAO ZORA, VPT2
   Ute Becker             : Parallelization
   Giovanni Bistoni       : ED, misc. LED, open-shell LED, HFLD
   Martin Brehm           : Molecular dynamics
   Dmytro Bykov           : SCF Hessian
   Vijay G. Chilkuri      : MRCI spin determinant printing, contributions to CSF-ICE
   Dipayan Datta          : RHF DLPNO-CCSD density
   Achintya Kumar Dutta   : EOM-CC, STEOM-CC
   Dmitry Ganyushin       : Spin-Orbit,Spin-Spin,Magnetic field MRCI
   Miquel Garcia          : C-PCM Hessian, Gaussian charge scheme
   Yang Guo               : DLPNO-NEVPT2, CIM, IAO-localization
   Andreas Hansen         : Spin unrestricted coupled pair/coupled cluster methods
   Benjamin Helmich-Paris : CASSCF linear response (MC-RPA)
   Lee Huntington         : MR-EOM, pCC
   Robert Izsak           : Overlap fitted RIJCOSX, COSX-SCS-MP3, EOM
   Christian Kollmar      : KDIIS, OOCD, Brueckner-CCSD(T), CCSD density
   Simone Kossmann        : Meta GGA functionals, TD-DFT gradient, OOMP2, MP2 Hessian
   Martin Krupicka        : AUTO-CI
   Lucas Lang             : DCDCAS
   Dagmar Lenk            : GEPOL surface, SMD
   Dimitrios Liakos       : Extrapolation schemes; Compound Job, initial MDCI parallelization
   Dimitrios Manganas     : Further ROCIS development; embedding schemes
   Dimitrios Pantazis     : SARC Basis sets
   Taras Petrenko         : DFT Hessian,TD-DFT gradient, ASA, ECA, R-Raman, ABS, FL, XAS/XES, NRVS
   Peter Pinski           : DLPNO-MP2, DLPNO-MP2 Gradient
   Christoph Reimann      : Effective Core Potentials
   Marius Retegan         : Local ZFS, SOC
   Christoph Riplinger    : Optimizer, TS searches, QM/MM, DLPNO-CCSD(T), (RO)-DLPNO pert. Triples
   Tobias Risthaus        : Range-separated hybrids, TD-DFT gradient, RPA, STAB
   Michael Roemelt        : Original ROCIS implementation
   Masaaki Saitow         : Open-shell DLPNO-CCSD energy and density
   Barbara Sandhoefer     : DKH picture change effects
   Avijit Sen             : IP-ROCIS
   Kantharuban Sivalingam : CASSCF convergence, NEVPT2, FIC-MRCI
   Bernardo de Souza      : ESD, SOC TD-DFT
   Georgi Stoychev        : AutoAux, RI-MP2 NMR
   Willem Van den Heuvel  : Paramagnetic NMR
   Boris Wezisla          : Elementary symmetry handling
   Frank Wennmohs         : Technical directorship


 We gratefully acknowledge several colleagues who have allowed us to
 interface, adapt or use parts of their codes:
   Stefan Grimme, W. Hujo, H. Kruse,             : VdW corrections, initial TS optimization,
                  C. Bannwarth                     DFT functionals, gCP, sTDA/sTD-DF
   Ed Valeev, F. Pavosevic, A. Kumar             : LibInt (2-el integral package), F12 methods
   Garnet Chan, S. Sharma, J. Yang, R. Olivares  : DMRG
   Ulf Ekstrom                                   : XCFun DFT Library
   Mihaly Kallay                                 : mrcc  (arbitrary order and MRCC methods)
   Andreas Klamt, Michael Diedenhofen            : otool_cosmo (COSMO solvation model)
   Jiri Pittner, Ondrej Demel                    : Mk-CCSD
   Frank Weinhold                                : gennbo (NPA and NBO analysis)
   Christopher J. Cramer and Donald G. Truhlar   : smd solvation model
   Lars Goerigk                                  : TD-DFT with DH, B97 family of functionals
   V. Asgeirsson, H. Jonsson                     : NEB implementation
   FAccTs GmbH                                   : IRC, NEB, NEB-TS, Multilevel, MM, QM/MM, CI optimization
   S Lehtola, MJT Oliveira, MAL Marques          : LibXC Library


 Your calculation uses the libint2 library for the computation of 2-el integrals
 For citations please refer to: http://libint.valeyev.net

 Your ORCA version has been built with support for libXC version: 4.2.3
 For citations please refer to: https://tddft.org/programs/libxc/

 This ORCA versions uses:
   CBLAS   interface :  Fast vector & matrix operations
   LAPACKE interface :  Fast linear algebra routines
   SCALAPACK package :  Parallel linear algebra routines


Your calculation utilizes the atom-pairwise dispersion correction
with the Becke-Johnson damping scheme (D3BJ)
Cite in your paper:
S.Grimme, S.Ehrlich, L.Goerigk, J Comput Chem, (2011), 32, 1456–1465 
S.Grimme, J.Antony, S.Ehrlich and H.Krieg, J.Chem.Phys., 132, (2010), 154104 
   

----- Orbital basis set information -----
Your calculation utilizes the basis: def2-SVP
   F. Weigend and R. Ahlrichs, Phys. Chem. Chem. Phys. 7, 3297 (2005).

----- AuxJ basis set information -----
Your calculation utilizes the auxiliary basis: def2/J
   F. Weigend, Phys. Chem. Chem. Phys. 8, 1057 (2006).

================================================================================
                                        WARNINGS
                       Please study these warnings very carefully!
================================================================================


INFO   : the flag for use of LIBINT has been found!

================================================================================
                                       INPUT FILE
================================================================================
NAME = manual_reactants_333_freq.inp
|  1> ! Freq PBE0 RIJCOSX D3BJ def2-SVP def2/J CPCM(Acetone)
|  2> %geom MaxIter 100 end
|  3> %output 
|  4> xyzfile=True 
|  5> end 
|  6> %scf 
|  7> maxiter 250 
|  8> end
|  9> %output
| 10> Print[P_Hirshfeld] = 1
| 11> end
| 12> % maxcore
| 13> 4000
| 14> %pal nprocs 4
| 15> end
| 16> *xyz -1 1
| 17>   C   -0.22903136734321      1.47754552303087     -2.41477131458861
| 18>   C   -0.61212666487172      0.14062203556538     -1.80747691104674
| 19>   C   -2.11764831429387     -0.00167824687765     -1.69562740850566
| 20>   C   0.01280056549135     -1.02969460801638     -2.54641989355266
| 21>   Br  0.11456926452728      0.09931059977573      0.06521937667724
| 22>   H   -0.61793388794388      1.52178755071493     -3.44622703869902
| 23>   H   -0.66888220702214      2.31138556874945     -1.84938402674032
| 24>   H   0.86198404375437      1.60757739774388     -2.45115007661822
| 25>   H   -2.55739351561619      0.04614939943910     -2.70626499885095
| 26>   H   -2.55313842838996      0.80968985451041     -1.09611932706885
| 27>   H   -2.39998072148067     -0.96308321965642     -1.24194137944686
| 28>   H   -0.22946205312162     -1.98362573199595     -2.05569589352787
| 29>   H   1.10656990564495     -0.93252258556434     -2.60843950441769
| 30>   H   -0.38986499913805     -1.06193315996416     -3.57279226449166
| 31>   Br  1.06437837980339     -0.45066037745486      3.54858066087790
| 32> *
| 33> 
| 34>                          ****END OF INPUT****
================================================================================

                       ****************************
                       * Single Point Calculation *
                       ****************************

---------------------------------
CARTESIAN COORDINATES (ANGSTROEM)
---------------------------------
  C     -0.229031    1.477546   -2.414771
  C     -0.612127    0.140622   -1.807477
  C     -2.117648   -0.001678   -1.695627
  C      0.012801   -1.029695   -2.546420
  Br     0.114569    0.099311    0.065219
  H     -0.617934    1.521788   -3.446227
  H     -0.668882    2.311386   -1.849384
  H      0.861984    1.607577   -2.451150
  H     -2.557394    0.046149   -2.706265
  H     -2.553138    0.809690   -1.096119
  H     -2.399981   -0.963083   -1.241941
  H     -0.229462   -1.983626   -2.055696
  H      1.106570   -0.932523   -2.608440
  H     -0.389865   -1.061933   -3.572792
  Br     1.064378   -0.450660    3.548581

----------------------------
CARTESIAN COORDINATES (A.U.)
----------------------------
  NO LB      ZA    FRAG     MASS         X           Y           Z
   0 C     6.0000    0    12.011   -0.432807    2.792156   -4.563256
   1 C     6.0000    0    12.011   -1.156752    0.265737   -3.415636
   2 C     6.0000    0    12.011   -4.001775   -0.003171   -3.204271
   3 C     6.0000    0    12.011    0.024190   -1.945841   -4.812036
   4 Br   35.0000    0    79.900    0.216505    0.187670    0.123247
   5 H     1.0000    0     1.008   -1.167726    2.875762   -6.512425
   6 H     1.0000    0     1.008   -1.264004    4.367886   -3.494829
   7 H     1.0000    0     1.008    1.628914    3.037881   -4.632002
   8 H     1.0000    0     1.008   -4.832773    0.087210   -5.114100
   9 H     1.0000    0     1.008   -4.824732    1.530092   -2.071365
  10 H     1.0000    0     1.008   -4.535306   -1.819964   -2.346929
  11 H     1.0000    0     1.008   -0.433620   -3.748509   -3.884702
  12 H     1.0000    0     1.008    2.091114   -1.762212   -4.929236
  13 H     1.0000    0     1.008   -0.736738   -2.006763   -6.751599
  14 Br   35.0000    0    79.900    2.011384   -0.851625    6.705846

--------------------------------
INTERNAL COORDINATES (ANGSTROEM)
--------------------------------
 C      0   0   0     0.000000000000     0.00000000     0.00000000
 C      1   0   0     1.517541732836     0.00000000     0.00000000
 C      2   1   0     1.516362462764   111.27422099     0.00000000
 C      2   1   3     1.518621684584   112.35314127   126.29284691
 Br     2   1   3     2.009175202561   107.44602533   243.46133685
 H      1   2   3     1.103224110661   108.69249029   296.47765417
 H      1   2   3     1.099281933023   111.18727878    55.25778047
 H      1   2   3     1.099339042343   111.59108314   177.09893193
 H      3   2   1     1.103200645784   108.91212111    61.41610953
 H      3   2   1     1.098808343222   111.37347988   302.35244849
 H      3   2   1     1.099928235293   111.54898873   180.85668739
 H      4   2   1     1.099766252380   111.14217723   176.68294830
 H      4   2   1     1.099827351696   111.62891257    55.12092954
 H      4   2   1     1.103004589744   108.97039005   295.61393471
 Br     5   2   1     3.652178975287   170.45220740   165.27433127

---------------------------
INTERNAL COORDINATES (A.U.)
---------------------------
 C      0   0   0     0.000000000000     0.00000000     0.00000000
 C      1   0   0     2.867738271856     0.00000000     0.00000000
 C      2   1   0     2.865509774383   111.27422099     0.00000000
 C      2   1   3     2.869779084898   112.35314127   126.29284691
 Br     2   1   3     3.796790887907   107.44602533   243.46133685
 H      1   2   3     2.084791433488   108.69249029   296.47765417
 H      1   2   3     2.077341797381   111.18727878    55.25778047
 H      1   2   3     2.077449718356   111.59108314   177.09893193
 H      3   2   1     2.084747091296   108.91212111    61.41610953
 H      3   2   1     2.076446842357   111.37347988   302.35244849
 H      3   2   1     2.078563131671   111.54898873   180.85668739
 H      4   2   1     2.078257028328   111.14217723   176.68294830
 H      4   2   1     2.078372489302   111.62891257    55.12092954
 H      4   2   1     2.084376599075   108.97039005   295.61393471
 Br     5   2   1     6.901618055357   170.45220740   165.27433127

---------------------
BASIS SET INFORMATION
---------------------
There are 3 groups of distinct atoms

 Group   1 Type C   : 7s4p1d contracted to 3s2p1d pattern {511/31/1}
 Group   2 Type Br  : 14s10p6d contracted to 5s4p3d pattern {63311/5311/411}
 Group   3 Type H   : 4s1p contracted to 2s1p pattern {31/1}

Atom   0C    basis set group =>   1
Atom   1C    basis set group =>   1
Atom   2C    basis set group =>   1
Atom   3C    basis set group =>   1
Atom   4Br   basis set group =>   2
Atom   5H    basis set group =>   3
Atom   6H    basis set group =>   3
Atom   7H    basis set group =>   3
Atom   8H    basis set group =>   3
Atom   9H    basis set group =>   3
Atom  10H    basis set group =>   3
Atom  11H    basis set group =>   3
Atom  12H    basis set group =>   3
Atom  13H    basis set group =>   3
Atom  14Br   basis set group =>   2
---------------------------------
AUXILIARY/J BASIS SET INFORMATION
---------------------------------
There are 3 groups of distinct atoms

 Group   1 Type C   : 12s5p4d2f1g contracted to 6s4p3d1f1g pattern {711111/2111/211/2/1}
 Group   2 Type Br  : 19s5p5d3f1g contracted to 8s4p3d2f1g pattern {121111111/2111/311/21/1}
 Group   3 Type H   : 5s2p1d contracted to 3s1p1d pattern {311/2/1}

Atom   0C    basis set group =>   1
Atom   1C    basis set group =>   1
Atom   2C    basis set group =>   1
Atom   3C    basis set group =>   1
Atom   4Br   basis set group =>   2
Atom   5H    basis set group =>   3
Atom   6H    basis set group =>   3
Atom   7H    basis set group =>   3
Atom   8H    basis set group =>   3
Atom   9H    basis set group =>   3
Atom  10H    basis set group =>   3
Atom  11H    basis set group =>   3
Atom  12H    basis set group =>   3
Atom  13H    basis set group =>   3
Atom  14Br   basis set group =>   2
[1631286064.668100] [comp0809:187294:0]            sys.c:618  UCX  ERROR shmget(size=2097152 flags=0xfb0) for mm_recv_desc failed: Operation not permitted, please check shared memory limits by 'ipcs -l'
[1631286064.669322] [comp0809:187297:0]            sys.c:618  UCX  ERROR shmget(size=2097152 flags=0xfb0) for mm_recv_desc failed: Operation not permitted, please check shared memory limits by 'ipcs -l'
[1631286064.669437] [comp0809:187295:0]            sys.c:618  UCX  ERROR shmget(size=2097152 flags=0xfb0) for mm_recv_desc failed: Operation not permitted, please check shared memory limits by 'ipcs -l'
[1631286064.669588] [comp0809:187296:0]            sys.c:618  UCX  ERROR shmget(size=2097152 flags=0xfb0) for mm_recv_desc failed: Operation not permitted, please check shared memory limits by 'ipcs -l'
[1631286064.717500] [comp0809:187294:0]            sys.c:618  UCX  ERROR shmget(size=2097152 flags=0xb80) for ucp_am_bufs failed: Operation not permitted, please check shared memory limits by 'ipcs -l'
[1631286064.718537] [comp0809:187297:0]            sys.c:618  UCX  ERROR shmget(size=2097152 flags=0xb80) for ucp_am_bufs failed: Operation not permitted, please check shared memory limits by 'ipcs -l'
[1631286064.718537] [comp0809:187295:0]            sys.c:618  UCX  ERROR shmget(size=2097152 flags=0xb80) for ucp_am_bufs failed: Operation not permitted, please check shared memory limits by 'ipcs -l'
[1631286064.719217] [comp0809:187296:0]            sys.c:618  UCX  ERROR shmget(size=2097152 flags=0xb80) for ucp_am_bufs failed: Operation not permitted, please check shared memory limits by 'ipcs -l'


           ************************************************************
           *        Program running with 4 parallel MPI-processes     *
           *              working on a common directory               *
           ************************************************************
------------------------------------------------------------------------------
                           ORCA GTO INTEGRAL CALCULATION
                           -- RI-GTO INTEGRALS CHOSEN --
------------------------------------------------------------------------------

                         BASIS SET STATISTICS AND STARTUP INFO

Gaussian basis set:
 # of primitive gaussian shells          ...  153
 # of primitive gaussian functions       ...  307
 # of contracted shells                  ...   75
 # of contracted basis functions         ...  165
 Highest angular momentum                ...    2
 Maximum contraction depth               ...    6
Auxiliary gaussian basis set:
 # of primitive gaussian shells          ...  234
 # of primitive gaussian functions       ...  602
 # of contracted shells                  ...  141
 # of contracted aux-basis functions     ...  411
 Highest angular momentum                ...    4
 Maximum contraction depth               ...   12
Ratio of auxiliary to basis functions    ...  2.49
Integral package used                  ... LIBINT
 One Electron integrals                  ... done
 Ordering auxiliary basis shells         ... done
 Integral threshhold             Thresh  ...  1.000e-10
 Primitive cut-off               TCut    ...  1.000e-11
 Pre-screening matrix                    ... done
 Shell pair data                         ... 
 Ordering of the shell pairs             ... done (   0.000 sec) 2453 of 2850 pairs
 Determination of significant pairs      ... done (   0.000 sec)
 Creation of shell pair data             ... done (   0.000 sec)
 Storage of shell pair data              ... done (   0.015 sec)
 Shell pair data done in (   0.016 sec)
 Computing two index integrals           ... done
 Cholesky decomposition of the V-matrix  ... done


Timings:
 Total evaluation time                   ...   0.375 sec (  0.006 min)
 One electron matrix time                ...   0.033 sec (  0.001 min) =  8.7%
 Schwartz matrix evaluation time         ...   0.120 sec (  0.002 min) = 31.9%
 Two index repulsion integral time       ...   0.004 sec (  0.000 min) =  1.0%
 Cholesky decomposition of V             ...   0.187 sec (  0.003 min) = 49.9%
 Three index repulsion integral time     ...   0.000 sec (  0.000 min) =  0.0%

[1631286067.320215] [comp0809:187320:0]            sys.c:618  UCX  ERROR shmget(size=2097152 flags=0xfb0) for mm_recv_desc failed: Operation not permitted, please check shared memory limits by 'ipcs -l'
[1631286067.320327] [comp0809:187322:0]            sys.c:618  UCX  ERROR shmget(size=2097152 flags=0xfb0) for mm_recv_desc failed: Operation not permitted, please check shared memory limits by 'ipcs -l'
[1631286067.347013] [comp0809:187323:0]            sys.c:618  UCX  ERROR shmget(size=2097152 flags=0xfb0) for mm_recv_desc failed: Operation not permitted, please check shared memory limits by 'ipcs -l'
[1631286067.347166] [comp0809:187321:0]            sys.c:618  UCX  ERROR shmget(size=2097152 flags=0xfb0) for mm_recv_desc failed: Operation not permitted, please check shared memory limits by 'ipcs -l'
[1631286067.355629] [comp0809:187320:0]            sys.c:618  UCX  ERROR shmget(size=2097152 flags=0xb80) for ucp_am_bufs failed: Operation not permitted, please check shared memory limits by 'ipcs -l'


           ************************************************************
           *        Program running with 4 parallel MPI-processes     *
           *              working on a common directory               *
           ************************************************************
[1631286067.359297] [comp0809:187322:0]            sys.c:618  UCX  ERROR shmget(size=2097152 flags=0xb80) for ucp_am_bufs failed: Operation not permitted, please check shared memory limits by 'ipcs -l'
[1631286067.359663] [comp0809:187321:0]            sys.c:618  UCX  ERROR shmget(size=2097152 flags=0xb80) for ucp_am_bufs failed: Operation not permitted, please check shared memory limits by 'ipcs -l'
[1631286067.360378] [comp0809:187323:0]            sys.c:618  UCX  ERROR shmget(size=2097152 flags=0xb80) for ucp_am_bufs failed: Operation not permitted, please check shared memory limits by 'ipcs -l'
-------------------------------------------------------------------------------
                                 ORCA SCF
-------------------------------------------------------------------------------

------------
SCF SETTINGS
------------
Hamiltonian:
 Density Functional     Method          .... DFT(GTOs)
 Exchange Functional    Exchange        .... PBE
   PBE kappa parameter   XKappa         ....  0.804000
   PBE mue parameter    XMuePBE         ....  0.219520
 Correlation Functional Correlation     .... PBE
   PBE beta parameter  CBetaPBE         ....  0.066725
 LDA part of GGA corr.  LDAOpt          .... PW91-LDA
 Gradients option       PostSCFGGA      .... off
 Hybrid DFT is turned on
   Fraction HF Exchange ScalHFX         ....  0.250000
   Scaling of DF-GGA-X  ScalDFX         ....  0.750000
   Scaling of DF-GGA-C  ScalDFC         ....  1.000000
   Scaling of DF-LDA-C  ScalLDAC        ....  1.000000
   Perturbative correction              ....  0.000000
   Density functional embedding theory  .... OFF
   NL short-range parameter             ....  6.900000
 RI-approximation to the Coulomb term is turned on
   Number of auxiliary basis functions  .... 411
   RIJ-COSX (HFX calculated with COS-X)).... on


General Settings:
 Integral files         IntName         .... manual_reactants_333_freq
 Hartree-Fock type      HFTyp           .... RHF
 Total Charge           Charge          ....   -1
 Multiplicity           Mult            ....    1
 Number of Electrons    NEL             ....  104
 Basis Dimension        Dim             ....  165
 Nuclear Repulsion      ENuc            ....    625.5941931849 Eh

Convergence Acceleration:
 DIIS                   CNVDIIS         .... on
   Start iteration      DIISMaxIt       ....    12
   Startup error        DIISStart       ....  0.200000
   # of expansion vecs  DIISMaxEq       ....     5
   Bias factor          DIISBfac        ....   1.050
   Max. coefficient     DIISMaxC        ....  10.000
 Newton-Raphson         CNVNR           .... off
 SOSCF                  CNVSOSCF        .... on
   Start iteration      SOSCFMaxIt      ....   150
   Startup grad/error   SOSCFStart      ....  0.003300
 Level Shifting         CNVShift        .... on
   Level shift para.    LevelShift      ....    0.2500
   Turn off err/grad.   ShiftErr        ....    0.0010
 Zerner damping         CNVZerner       .... off
 Static damping         CNVDamp         .... on
   Fraction old density DampFac         ....    0.7000
   Max. Damping (<1)    DampMax         ....    0.9800
   Min. Damping (>=0)   DampMin         ....    0.0000
   Turn off err/grad.   DampErr         ....    0.1000
 Fernandez-Rico         CNVRico         .... off

SCF Procedure:
 Maximum # iterations   MaxIter         ....   250
 SCF integral mode      SCFMode         .... Direct
   Integral package                     .... LIBINT
 Reset frequency        DirectResetFreq ....    20
 Integral Threshold     Thresh          ....  1.000e-10 Eh
 Primitive CutOff       TCut            ....  1.000e-11 Eh

Convergence Tolerance:
 Convergence Check Mode ConvCheckMode   .... Total+1el-Energy
 Convergence forced     ConvForced      .... 0
 Energy Change          TolE            ....  1.000e-06 Eh
 1-El. energy change                    ....  1.000e-03 Eh
 Orbital Gradient       TolG            ....  5.000e-05
 Orbital Rotation angle TolX            ....  5.000e-05
 DIIS Error             TolErr          ....  1.000e-06


Diagonalization of the overlap matrix:
Smallest eigenvalue                        ... 1.970e-03
Time for diagonalization                   ...    0.155 sec
Threshold for overlap eigenvalues          ... 1.000e-08
Number of eigenvalues below threshold      ... 0
Time for construction of square roots      ...    0.002 sec
Total time needed                          ...    0.158 sec

-------------------
DFT GRID GENERATION
-------------------

General Integration Accuracy     IntAcc      ...  4.340
Radial Grid Type                 RadialGrid  ... Gauss-Chebyshev
Angular Grid (max. acc.)         AngularGrid ... Lebedev-110
Angular grid pruning method      GridPruning ... 3 (G Style)
Weight generation scheme         WeightScheme... Becke
Basis function cutoff            BFCut       ...    1.0000e-10
Integration weight cutoff        WCut        ...    1.0000e-14
Grids for H and He will be reduced by one unit

# of grid points (after initial pruning)     ...  19550 (   0.0 sec)
# of grid points (after weights+screening)   ...  18422 (   0.0 sec)
nearest neighbour list constructed           ...    0.0 sec
Grid point re-assignment to atoms done       ...    0.0 sec
Grid point division into batches done        ...    0.0 sec
Reduced shell lists constructed in    0.1 sec

Total number of grid points                  ...    18422
Total number of batches                      ...      297
Average number of points per batch           ...       62
Average number of grid points per atom       ...     1228
Average number of shells per batch           ...    56.00 (74.67%)
Average number of basis functions per batch  ...   118.82 (72.01%)
Average number of large shells per batch     ...    46.04 (82.21%)
Average number of large basis fcns per batch ...    94.86 (79.83%)
Maximum spatial batch extension              ...   6.61,  7.10,  4.57 au
Average spatial batch extension              ...   0.51,  0.53,  0.48 au

Time for grid setup =    0.119 sec

------------------------------
INITIAL GUESS: MODEL POTENTIAL
------------------------------
Loading Hartree-Fock densities                     ... done
Calculating cut-offs                               ... done
Setting up the integral package                    ... done
Initializing the effective Hamiltonian             ... done
Starting the Coulomb interaction                   ... done (   0.0 sec)
Reading the grid                                   ... done
Mapping shells                                     ... done
Starting the XC term evaluation                    ... done (   0.0 sec)
  promolecular density results
     # of electrons  =    102.990853562
     EX              =   -201.618408034
     EC              =     -4.486619526
     EX+EC           =   -206.105027560
Transforming the Hamiltonian                       ... done (   0.0 sec)
Diagonalizing the Hamiltonian                      ... done (   0.0 sec)
Back transforming the eigenvectors                 ... done (   0.0 sec)
Now organizing SCF variables                       ... done
                      ------------------
                      INITIAL GUESS DONE (   0.3 sec)
                      ------------------
--------------------
COSX GRID GENERATION
--------------------

General Integration Accuracy     IntAcc      ...  3.340
Radial Grid Type                 RadialGrid  ... Gauss-Chebyshev
Angular Grid (max. acc.)         AngularGrid ... Lebedev-50
Angular grid pruning method      GridPruning ... 3 (G Style)
Weight generation scheme         WeightScheme... Becke
Basis function cutoff            BFCut       ...    1.0000e-10
Integration weight cutoff        WCut        ...    1.0000e-14
Grids for H and He will be reduced by one unit

# of grid points (after initial pruning)     ...   7284 (   0.0 sec)
# of grid points (after weights+screening)   ...   6861 (   0.0 sec)
nearest neighbour list constructed           ...    0.0 sec
Grid point re-assignment to atoms done       ...    0.0 sec
Grid point division into batches done        ...    0.0 sec
Reduced shell lists constructed in    0.0 sec

Total number of grid points                  ...     6861
Total number of batches                      ...      115
Average number of points per batch           ...       59
Average number of grid points per atom       ...      457
Average number of shells per batch           ...    56.73 (75.64%)
Average number of basis functions per batch  ...   121.33 (73.54%)
Average number of large shells per batch     ...    47.93 (84.49%)
Average number of large basis fcns per batch ...    99.33 (81.87%)
Maximum spatial batch extension              ...   6.90,  7.20,  4.39 au
Average spatial batch extension              ...   0.64,  0.65,  0.57 au

Overlap Fitting                  UseSFitting ... on
Constructing numerical overlap ... done (      0.0 sec)
Inverting numerical overlap    ... done (      0.0 sec)
Obtaining analytic overlap     ... done (      0.0 sec)
Final contraction and storage  ... done (      0.0 sec)


General Integration Accuracy     IntAcc      ...  3.670
Radial Grid Type                 RadialGrid  ... Gauss-Chebyshev
Angular Grid (max. acc.)         AngularGrid ... Lebedev-50
Angular grid pruning method      GridPruning ... 3 (G Style)
Weight generation scheme         WeightScheme... Becke
Basis function cutoff            BFCut       ...    1.0000e-10
Integration weight cutoff        WCut        ...    1.0000e-14
Grids for H and He will be reduced by one unit

# of grid points (after initial pruning)     ...   9160 (   0.0 sec)
# of grid points (after weights+screening)   ...   8605 (   0.0 sec)
nearest neighbour list constructed           ...    0.0 sec
Grid point re-assignment to atoms done       ...    0.0 sec
Grid point division into batches done        ...    0.0 sec
Reduced shell lists constructed in    0.0 sec

Total number of grid points                  ...     8605
Total number of batches                      ...      142
Average number of points per batch           ...       60
Average number of grid points per atom       ...      574
Average number of shells per batch           ...    56.70 (75.60%)
Average number of basis functions per batch  ...   120.65 (73.12%)
Average number of large shells per batch     ...    47.76 (84.22%)
Average number of large basis fcns per batch ...    98.41 (81.56%)
Maximum spatial batch extension              ...   6.50,  8.14,  4.61 au
Average spatial batch extension              ...   0.57,  0.62,  0.55 au

Overlap Fitting                  UseSFitting ... on
Constructing numerical overlap ... done (      0.0 sec)
Inverting numerical overlap    ... done (      0.0 sec)
Obtaining analytic overlap     ... done (      0.0 sec)
Final contraction and storage  ... done (      0.0 sec)


General Integration Accuracy     IntAcc      ...  4.010
Radial Grid Type                 RadialGrid  ... Gauss-Chebyshev
Angular Grid (max. acc.)         AngularGrid ... Lebedev-110
Angular grid pruning method      GridPruning ... 3 (G Style)
Weight generation scheme         WeightScheme... Becke
Basis function cutoff            BFCut       ...    1.0000e-10
Integration weight cutoff        WCut        ...    1.0000e-14
Grids for H and He will be reduced by one unit

# of grid points (after initial pruning)     ...  17048 (   0.0 sec)
# of grid points (after weights+screening)   ...  16098 (   0.0 sec)
nearest neighbour list constructed           ...    0.0 sec
Grid point re-assignment to atoms done       ...    0.0 sec
Grid point division into batches done        ...    0.0 sec
Reduced shell lists constructed in    0.0 sec

Total number of grid points                  ...    16098
Total number of batches                      ...      257
Average number of points per batch           ...       62
Average number of grid points per atom       ...     1073
Average number of shells per batch           ...    56.38 (75.17%)
Average number of basis functions per batch  ...   120.23 (72.87%)
Average number of large shells per batch     ...    46.36 (82.24%)
Average number of large basis fcns per batch ...    95.79 (79.67%)
Maximum spatial batch extension              ...   6.80,  7.19,  4.45 au
Average spatial batch extension              ...   0.55,  0.55,  0.50 au

Overlap Fitting                  UseSFitting ... on
Constructing numerical overlap ... done (      0.0 sec)
Inverting numerical overlap    ... done (      0.0 sec)
Obtaining analytic overlap     ... done (      0.0 sec)
Final contraction and storage  ... done (      0.0 sec)

Time for X-Grid setup             =    0.192 sec

--------------------
CPCM SOLVATION MODEL
--------------------
CPCM parameters:
  Epsilon                                         ...      20.7000
  Refrac                                          ...       1.3590
  Rsolv                                           ...       1.3000
  Surface type                                    ...    GEPOL SES
  Epsilon function type                           ...         CPCM
Radii:
 Radius for C  used is    3.7795 Bohr (=   2.0000 Ang.)
 Radius for Br used is    4.0818 Bohr (=   2.1600 Ang.)
 Radius for H  used is    2.4566 Bohr (=   1.3000 Ang.)
Calculating surface                               ...        done! (  0.0s)
GEPOL surface points                              ...          714
GEPOL Volume                                      ...    1163.8835
GEPOL Surface-area                                ...     660.5325
Calculating surface distance matrix               ...        done! (  0.0s)
Performing Cholesky decomposition & store         ...        done! (  0.0s)
Overall time for CPCM initialization              ...                 0.1s
--------------
SCF ITERATIONS
--------------
ITER       Energy         Delta-E        Max-DP      RMS-DP      [F,P]     Damp
               ***  Starting incremental Fock matrix formation  ***
  0  -5304.6358628841   0.000000000000 0.11497711  0.00210095  0.1544614 0.7000
  1  -5304.7137566243  -0.077893740160 0.08744804  0.00155474  0.0823740 0.7000
                               ***Turning on DIIS***
  2  -5304.7487970731  -0.035040448854 0.17167458  0.00291131  0.0421652 0.0000
  3  -5304.7991977604  -0.050400687275 0.03815222  0.00094472  0.0433786 0.0000
  4  -5304.8115503323  -0.012352571941 0.01837325  0.00029704  0.0085330 0.0000
                      *** Initiating the SOSCF procedure ***
                           *** Shutting down DIIS ***
                      *** Re-Reading the Fockian *** 
                      *** Removing any level shift *** 
ITER      Energy       Delta-E        Grad      Rot      Max-DP    RMS-DP
  5  -5304.81210176  -0.0005514290  0.000825  0.000825  0.002959  0.000086
               *** Restarting incremental Fock matrix formation ***
  6  -5304.81212168  -0.0000199189  0.000354  0.000909  0.001107  0.000048
  7  -5304.81212292  -0.0000012436  0.000199  0.000127  0.000579  0.000014
  8  -5304.81212497  -0.0000020420  0.000019  0.000052  0.000071  0.000002
  9  -5304.81212482   0.0000001504  0.000020  0.000019  0.000042  0.000001
                 **** Energy Check signals convergence ****
              ***Rediagonalizing the Fockian in SOSCF/NRSCF***

               *****************************************************
               *                     SUCCESS                       *
               *           SCF CONVERGED AFTER  10 CYCLES          *
               *****************************************************

Setting up the final grid:

General Integration Accuracy     IntAcc      ...  4.670
Radial Grid Type                 RadialGrid  ... Gauss-Chebyshev
Angular Grid (max. acc.)         AngularGrid ... Lebedev-302
Angular grid pruning method      GridPruning ... 3 (G Style)
Weight generation scheme         WeightScheme... Becke
Basis function cutoff            BFCut       ...    1.0000e-10
Integration weight cutoff        WCut        ...    1.0000e-14
Grids for H and He will be reduced by one unit

# of grid points (after initial pruning)     ...  74626 (   0.0 sec)
# of grid points (after weights+screening)   ...  69300 (   0.0 sec)
nearest neighbour list constructed           ...    0.0 sec
Grid point re-assignment to atoms done       ...    0.0 sec
Grid point division into batches done        ...    0.3 sec
Reduced shell lists constructed in    0.4 sec

Total number of grid points                  ...    69300
Total number of batches                      ...     1092
Average number of points per batch           ...       63
Average number of grid points per atom       ...     4620
Average number of shells per batch           ...    54.81 (73.09%)
Average number of basis functions per batch  ...   115.52 (70.01%)
Average number of large shells per batch     ...    43.76 (79.83%)
Average number of large basis fcns per batch ...    89.40 (77.39%)
Maximum spatial batch extension              ...   5.50,  5.46,  3.87 au
Average spatial batch extension              ...   0.32,  0.32,  0.30 au

Final grid set up in    0.4 sec
Final integration                            ... done (   0.2 sec)
Change in XC energy                          ...    -0.000532743
Integrated number of electrons               ...   104.000099808
Previous integrated no of electrons          ...   103.997640940
Old exchange energy                            =    -50.834928926 Eh
New exchange energy                            =    -50.835116529 Eh
Exchange energy change after final integration =     -0.000187603 Eh
Total energy after final integration           =  -5304.812845129 Eh
Final COS-X integration done in                =     1.119 sec

----------------
TOTAL SCF ENERGY
----------------

Total Energy       :        -5304.81284513 Eh         -144351.29619 eV

Components:
Nuclear Repulsion  :          625.59419318 Eh           17023.28344 eV
Electronic Energy  :        -5930.40703831 Eh         -161374.57964 eV
One Electron Energy:        -8644.12482774 Eh         -235218.59485 eV
Two Electron Energy:         2713.71778942 Eh           73844.01521 eV
CPCM Dielectric    :           -0.12159685 Eh              -3.30882 eV

Virial components:
Potential Energy   :       -10602.58133103 Eh         -288510.90563 eV
Kinetic Energy     :         5297.76848590 Eh          144159.60943 eV
Virial Ratio       :            2.00132968


DFT components:
N(Alpha)           :       52.000049904024 electrons
N(Beta)            :       52.000049904024 electrons
N(Total)           :      104.000099808048 electrons
E(X)               :     -151.832455373908 Eh       
E(C)               :       -4.538704812588 Eh       
E(XC)              :     -156.371160186496 Eh       
DFET-embed. en.    :        0.000000000000 Eh       
CPCM Solvation Model Properties:
Surface-charge          :            0.97240830
Charge-correction       :           -0.00372528 Eh              -0.10137 eV
Free-energy (cav+disp)  :            0.00409892 Eh               0.11154 eV
Corrected G(solv)       :        -5304.81247149 Eh         -144351.28603 eV

---------------
SCF CONVERGENCE
---------------

  Last Energy change         ...    3.2205e-08  Tolerance :   1.0000e-06
  Last MAX-Density change    ...    3.9968e-15  Tolerance :   1.0000e-05
  Last RMS-Density change    ...    7.8204e-17  Tolerance :   1.0000e-06
  Last Orbital Gradient      ...    6.4359e-06  Tolerance :   5.0000e-05
  Last Orbital Rotation      ...    6.9514e-06  Tolerance :   5.0000e-05

             **** THE GBW FILE WAS UPDATED (manual_reactants_333_freq.gbw) ****
             **** DENSITY FILE WAS UPDATED (manual_reactants_333_freq.scfp) ****
             **** ENERGY FILE WAS UPDATED (manual_reactants_333_freq.en.tmp) ****
             **** THE GBW FILE WAS UPDATED (manual_reactants_333_freq.gbw) ****
             **** DENSITY FILE WAS UPDATED (manual_reactants_333_freq.scfp) ****
----------------
ORBITAL ENERGIES
----------------

  NO   OCC          E(Eh)            E(eV) 
   0   2.0000    -483.161836    -13147.5020 
   1   2.0000    -483.061195    -13144.7634 
   2   2.0000     -62.597558     -1703.3662 
   3   2.0000     -62.496540     -1700.6173 
   4   2.0000     -56.386740     -1534.3612 
   5   2.0000     -56.384454     -1534.2990 
   6   2.0000     -56.384439     -1534.2986 
   7   2.0000     -56.284397     -1531.5763 
   8   2.0000     -56.284380     -1531.5758 
   9   2.0000     -56.284349     -1531.5750 
  10   2.0000     -10.289780      -279.9991 
  11   2.0000     -10.224658      -278.2271 
  12   2.0000     -10.224589      -278.2252 
  13   2.0000     -10.224241      -278.2158 
  14   2.0000      -8.742501      -237.8955 
  15   2.0000      -8.639977      -235.1057 
  16   2.0000      -6.556506      -178.4116 
  17   2.0000      -6.544724      -178.0910 
  18   2.0000      -6.544709      -178.0906 
  19   2.0000      -6.446473      -175.4175 
  20   2.0000      -6.446190      -175.4098 
  21   2.0000      -6.446186      -175.4096 
  22   2.0000      -2.641993       -71.8923 
  23   2.0000      -2.638844       -71.8066 
  24   2.0000      -2.638818       -71.8059 
  25   2.0000      -2.629299       -71.5469 
  26   2.0000      -2.629282       -71.5464 
  27   2.0000      -2.533270       -68.9338 
  28   2.0000      -2.533225       -68.9326 
  29   2.0000      -2.533208       -68.9321 
  30   2.0000      -2.532994       -68.9263 
  31   2.0000      -2.532985       -68.9260 
  32   2.0000      -0.853207       -23.2170 
  33   2.0000      -0.742878       -20.2147 
  34   2.0000      -0.701664       -19.0932 
  35   2.0000      -0.700648       -19.0656 
  36   2.0000      -0.649470       -17.6730 
  37   2.0000      -0.547404       -14.8956 
  38   2.0000      -0.468767       -12.7558 
  39   2.0000      -0.454874       -12.3777 
  40   2.0000      -0.454189       -12.3591 
  41   2.0000      -0.399927       -10.8826 
  42   2.0000      -0.398752       -10.8506 
  43   2.0000      -0.373277       -10.1574 
  44   2.0000      -0.352765        -9.5992 
  45   2.0000      -0.352080        -9.5806 
  46   2.0000      -0.328283        -8.9330 
  47   2.0000      -0.275980        -7.5098 
  48   2.0000      -0.275661        -7.5011 
  49   2.0000      -0.213034        -5.7969 
  50   2.0000      -0.212882        -5.7928 
  51   2.0000      -0.209815        -5.7094 
  52   0.0000       0.016918         0.4604 
  53   0.0000       0.073032         1.9873 
  54   0.0000       0.132052         3.5933 
  55   0.0000       0.132801         3.6137 
  56   0.0000       0.138114         3.7583 
  57   0.0000       0.140993         3.8366 
  58   0.0000       0.141453         3.8491 
  59   0.0000       0.180508         4.9119 
  60   0.0000       0.182058         4.9541 
  61   0.0000       0.206907         5.6302 
  62   0.0000       0.208828         5.6825 
  63   0.0000       0.235778         6.4159 
  64   0.0000       0.236526         6.4362 
  65   0.0000       0.316759         8.6194 
  66   0.0000       0.369012        10.0413 
  67   0.0000       0.397714        10.8223 
  68   0.0000       0.399132        10.8609 
  69   0.0000       0.415968        11.3191 
  70   0.0000       0.416317        11.3286 
  71   0.0000       0.493236        13.4216 
  72   0.0000       0.525438        14.2979 
  73   0.0000       0.527057        14.3420 
  74   0.0000       0.540850        14.7173 
  75   0.0000       0.576084        15.6760 
  76   0.0000       0.582163        15.8415 
  77   0.0000       0.582594        15.8532 
  78   0.0000       0.633351        17.2344 
  79   0.0000       0.634183        17.2570 
  80   0.0000       0.636285        17.3142 
  81   0.0000       0.636536        17.3210 
  82   0.0000       0.638001        17.3609 
  83   0.0000       0.638233        17.3672 
  84   0.0000       0.651516        17.7286 
  85   0.0000       0.653801        17.7908 
  86   0.0000       0.656061        17.8523 
  87   0.0000       0.676445        18.4070 
  88   0.0000       0.684862        18.6360 
  89   0.0000       0.685818        18.6621 
  90   0.0000       0.696018        18.9396 
  91   0.0000       0.696598        18.9554 
  92   0.0000       0.716435        19.4952 
  93   0.0000       0.717375        19.5208 
  94   0.0000       0.726340        19.7647 
  95   0.0000       0.738019        20.0825 
  96   0.0000       0.738935        20.1074 
  97   0.0000       0.755783        20.5659 
  98   0.0000       0.757130        20.6025 
  99   0.0000       0.775312        21.0973 
 100   0.0000       0.778926        21.1957 
 101   0.0000       0.840033        22.8585 
 102   0.0000       0.862371        23.4663 
 103   0.0000       0.864526        23.5249 
 104   0.0000       1.019206        27.7340 
 105   0.0000       1.121897        30.5284 
 106   0.0000       1.126940        30.6656 
 107   0.0000       1.157336        31.4927 
 108   0.0000       1.171269        31.8718 
 109   0.0000       1.175854        31.9966 
 110   0.0000       1.279474        34.8163 
 111   0.0000       1.507575        41.0232 
 112   0.0000       1.510594        41.1053 
 113   0.0000       1.548221        42.1292 
 114   0.0000       1.548721        42.1428 
 115   0.0000       1.550604        42.1941 
 116   0.0000       1.595599        43.4185 
 117   0.0000       1.598034        43.4847 
 118   0.0000       1.651743        44.9462 
 119   0.0000       1.721852        46.8540 
 120   0.0000       1.768730        48.1296 
 121   0.0000       1.769333        48.1460 
 122   0.0000       1.823137        49.6101 
 123   0.0000       1.828661        49.7604 
 124   0.0000       1.842906        50.1480 
 125   0.0000       1.844810        50.1998 
 126   0.0000       1.853276        50.4302 
 127   0.0000       1.873503        50.9806 
 128   0.0000       1.924505        52.3684 
 129   0.0000       1.926011        52.4094 
 130   0.0000       1.944082        52.9012 
 131   0.0000       2.013946        54.8023 
 132   0.0000       2.165629        58.9297 
 133   0.0000       2.166480        58.9529 
 134   0.0000       2.170854        59.0719 
 135   0.0000       2.212160        60.1959 
 136   0.0000       2.214330        60.2550 
 137   0.0000       2.363612        64.3172 
 138   0.0000       2.398906        65.2775 
 139   0.0000       2.400451        65.3196 
 140   0.0000       2.459583        66.9287 
 141   0.0000       2.549679        69.3803 
 142   0.0000       2.551493        69.4297 
 143   0.0000       2.607144        70.9440 
 144   0.0000       2.649731        72.1029 
 145   0.0000       2.649978        72.1096 
 146   0.0000       2.737919        74.5026 
 147   0.0000       2.879231        78.3479 
 148   0.0000       2.881774        78.4171 
 149   0.0000       2.911353        79.2219 
 150   0.0000       2.956579        80.4526 
 151   0.0000       2.958440        80.5032 
 152   0.0000       2.971724        80.8647 
 153   0.0000       3.069811        83.5338 
 154   0.0000       3.074246        83.6545 
 155   0.0000       3.520508        95.7979 
 156   0.0000       3.521522        95.8255 
 157   0.0000       3.564697        97.0003 
 158   0.0000       3.564819        97.0037 
 159   0.0000       3.565168        97.0132 
 160   0.0000       3.565257        97.0156 
 161   0.0000       3.577273        97.3425 
 162   0.0000       3.637345        98.9772 
 163   0.0000       3.638871        99.0187 
 164   0.0000       3.857081       104.9565 

                    ********************************
                    * MULLIKEN POPULATION ANALYSIS *
                    ********************************

-----------------------
MULLIKEN ATOMIC CHARGES
-----------------------
   0 C :    0.025673
   1 C :   -0.453346
   2 C :    0.024426
   3 C :    0.027557
   4 Br:   -0.157877
   5 H :    0.055881
   6 H :    0.053858
   7 H :    0.057742
   8 H :    0.056681
   9 H :    0.056698
  10 H :    0.054685
  11 H :    0.055122
  12 H :    0.058395
  13 H :    0.055162
  14 Br:   -0.970655
Sum of atomic charges:   -1.0000000

--------------------------------
MULLIKEN REDUCED ORBITAL CHARGES
--------------------------------
  0 C s       :     3.011912  s :     3.011912
      pz      :     0.989889  p :     2.935773
      px      :     1.016779
      py      :     0.929105
      dz2     :     0.006304  d :     0.026642
      dxz     :     0.003167
      dyz     :     0.005398
      dx2y2   :     0.007680
      dxy     :     0.004093
  1 C s       :     3.368240  s :     3.368240
      pz      :     0.888806  p :     3.030291
      px      :     1.055456
      py      :     1.086029
      dz2     :     0.011628  d :     0.054815
      dxz     :     0.009535
      dyz     :     0.010145
      dx2y2   :     0.013265
      dxy     :     0.010242
  2 C s       :     3.018221  s :     3.018221
      pz      :     1.019457  p :     2.930665
      px      :     0.888769
      py      :     1.022439
      dz2     :     0.005151  d :     0.026688
      dxz     :     0.005073
      dyz     :     0.004679
      dx2y2   :     0.006962
      dxy     :     0.004822
  3 C s       :     3.012376  s :     3.012376
      pz      :     0.978527  p :     2.933472
      px      :     1.003551
      py      :     0.951393
      dz2     :     0.006362  d :     0.026595
      dxz     :     0.003458
      dyz     :     0.005265
      dx2y2   :     0.008284
      dxy     :     0.003227
  4 Brs       :     7.974159  s :     7.974159
      pz      :     5.304126  p :    17.145468
      px      :     5.872444
      py      :     5.968899
      dz2     :     2.018474  d :    10.038249
      dxz     :     2.010919
      dyz     :     2.006052
      dx2y2   :     2.002057
      dxy     :     2.000746
  5 H s       :     0.920048  s :     0.920048
      pz      :     0.013683  p :     0.024071
      px      :     0.006140
      py      :     0.004249
  6 H s       :     0.922409  s :     0.922409
      pz      :     0.007464  p :     0.023734
      px      :     0.006382
      py      :     0.009888
  7 H s       :     0.918530  s :     0.918530
      pz      :     0.004786  p :     0.023728
      px      :     0.014811
      py      :     0.004132
  8 H s       :     0.919195  s :     0.919195
      pz      :     0.013246  p :     0.024124
      px      :     0.005709
      py      :     0.005168
  9 H s       :     0.919475  s :     0.919475
      pz      :     0.008137  p :     0.023828
      px      :     0.005335
      py      :     0.010356
 10 H s       :     0.921597  s :     0.921597
      pz      :     0.006792  p :     0.023719
      px      :     0.004389
      py      :     0.012539
 11 H s       :     0.921162  s :     0.921162
      pz      :     0.006669  p :     0.023716
      px      :     0.005186
      py      :     0.011861
 12 H s       :     0.917889  s :     0.917889
      pz      :     0.004683  p :     0.023715
      px      :     0.014780
      py      :     0.004252
 13 H s       :     0.920753  s :     0.920753
      pz      :     0.013563  p :     0.024084
      px      :     0.006068
      py      :     0.004454
 14 Brs       :     7.999951  s :     7.999951
      pz      :     5.973483  p :    17.970258
      px      :     5.998046
      py      :     5.998729
      dz2     :     2.000245  d :    10.000447
      dxz     :     2.000120
      dyz     :     2.000068
      dx2y2   :     2.000007
      dxy     :     2.000007


                     *******************************
                     * LOEWDIN POPULATION ANALYSIS *
                     *******************************

----------------------
LOEWDIN ATOMIC CHARGES
----------------------
   0 C :   -0.070120
   1 C :   -0.100561
   2 C :   -0.069925
   3 C :   -0.070434
   4 Br:   -0.035101
   5 H :    0.039195
   6 H :    0.033498
   7 H :    0.033539
   8 H :    0.039023
   9 H :    0.033291
  10 H :    0.033353
  11 H :    0.033380
  12 H :    0.033944
  13 H :    0.038864
  14 Br:   -0.971947

-------------------------------
LOEWDIN REDUCED ORBITAL CHARGES
-------------------------------
  0 C s       :     2.849233  s :     2.849233
      pz      :     1.065157  p :     3.149040
      px      :     1.066357
      py      :     1.017526
      dz2     :     0.016418  d :     0.071848
      dxz     :     0.007996
      dyz     :     0.015499
      dx2y2   :     0.021286
      dxy     :     0.010649
  1 C s       :     2.917486  s :     2.917486
      pz      :     0.921978  p :     3.065752
      px      :     1.059926
      py      :     1.083848
      dz2     :     0.024098  d :     0.117323
      dxz     :     0.018629
      dyz     :     0.022684
      dx2y2   :     0.031003
      dxy     :     0.020909
  2 C s       :     2.849576  s :     2.849576
      pz      :     1.074784  p :     3.148303
      px      :     1.003639
      py      :     1.069880
      dz2     :     0.013913  d :     0.072046
      dxz     :     0.012967
      dyz     :     0.012538
      dx2y2   :     0.020439
      dxy     :     0.012189
  3 C s       :     2.849729  s :     2.849729
      pz      :     1.060476  p :     3.148997
      px      :     1.058974
      py      :     1.029546
      dz2     :     0.016384  d :     0.071709
      dxz     :     0.009028
      dyz     :     0.015282
      dx2y2   :     0.022210
      dxy     :     0.008806
  4 Brs       :     7.848966  s :     7.848966
      pz      :     5.330892  p :    17.130997
      px      :     5.855366
      py      :     5.944739
      dz2     :     2.027354  d :    10.055138
      dxz     :     2.016191
      dyz     :     2.008093
      dx2y2   :     2.002507
      dxy     :     2.000993
  5 H s       :     0.894070  s :     0.894070
      pz      :     0.038307  p :     0.066735
      px      :     0.015956
      py      :     0.012472
  6 H s       :     0.899699  s :     0.899699
      pz      :     0.020009  p :     0.066804
      px      :     0.017071
      py      :     0.029723
  7 H s       :     0.899595  s :     0.899595
      pz      :     0.012597  p :     0.066867
      px      :     0.041651
      py      :     0.012619
  8 H s       :     0.894277  s :     0.894277
      pz      :     0.036509  p :     0.066700
      px      :     0.017483
      py      :     0.012708
  9 H s       :     0.899718  s :     0.899718
      pz      :     0.021397  p :     0.066991
      px      :     0.017071
      py      :     0.028523
 10 H s       :     0.899998  s :     0.899998
      pz      :     0.017550  p :     0.066649
      px      :     0.014127
      py      :     0.034972
 11 H s       :     0.899858  s :     0.899858
      pz      :     0.018013  p :     0.066762
      px      :     0.013751
      py      :     0.034998
 12 H s       :     0.899246  s :     0.899246
      pz      :     0.012609  p :     0.066810
      px      :     0.041865
      py      :     0.012336
 13 H s       :     0.894404  s :     0.894404
      pz      :     0.038194  p :     0.066732
      px      :     0.016044
      py      :     0.012494
 14 Brs       :     7.999967  s :     7.999967
      pz      :     5.974443  p :    17.971381
      px      :     5.998117
      py      :     5.998820
      dz2     :     2.000345  d :    10.000599
      dxz     :     2.000155
      dyz     :     2.000083
      dx2y2   :     2.000008
      dxy     :     2.000008


                      *****************************
                      * MAYER POPULATION ANALYSIS *
                      *****************************

  NA   - Mulliken gross atomic population
  ZA   - Total nuclear charge
  QA   - Mulliken gross atomic charge
  VA   - Mayer's total valence
  BVA  - Mayer's bonded valence
  FA   - Mayer's free valence

  ATOM       NA         ZA         QA         VA         BVA        FA
  0 C      5.9743     6.0000     0.0257     3.8283     3.8283    -0.0000
  1 C      6.4533     6.0000    -0.4533     4.1008     4.1008    -0.0000
  2 C      5.9756     6.0000     0.0244     3.8274     3.8274     0.0000
  3 C      5.9724     6.0000     0.0276     3.8272     3.8272    -0.0000
  4 Br    35.1579    35.0000    -0.1579     1.0384     1.0384    -0.0000
  5 H      0.9441     1.0000     0.0559     0.9926     0.9926    -0.0000
  6 H      0.9461     1.0000     0.0539     0.9977     0.9977    -0.0000
  7 H      0.9423     1.0000     0.0577     0.9967     0.9967    -0.0000
  8 H      0.9433     1.0000     0.0567     0.9925     0.9925     0.0000
  9 H      0.9433     1.0000     0.0567     0.9967     0.9967    -0.0000
 10 H      0.9453     1.0000     0.0547     0.9969     0.9969     0.0000
 11 H      0.9449     1.0000     0.0551     0.9973     0.9973    -0.0000
 12 H      0.9416     1.0000     0.0584     0.9959     0.9959    -0.0000
 13 H      0.9448     1.0000     0.0552     0.9924     0.9924     0.0000
 14 Br    35.9707    35.0000    -0.9707     0.0623     0.0623    -0.0000

  Mayer bond orders larger than 0.100000
B(  0-C ,  1-C ) :   1.0062 B(  0-C ,  5-H ) :   0.9531 B(  0-C ,  6-H ) :   0.9642 
B(  0-C ,  7-H ) :   0.9647 B(  1-C ,  2-C ) :   1.0037 B(  1-C ,  3-C ) :   1.0070 
B(  1-C ,  4-Br) :   0.9576 B(  2-C ,  8-H ) :   0.9547 B(  2-C ,  9-H ) :   0.9657 
B(  2-C , 10-H ) :   0.9658 B(  3-C , 11-H ) :   0.9642 B(  3-C , 12-H ) :   0.9653 
B(  3-C , 13-H ) :   0.9530 


------------------
HIRSHFELD ANALYSIS
------------------

Total integrated alpha density =     51.998820471
Total integrated beta density  =     51.998820471

  ATOM     CHARGE      SPIN    
   0 C   -0.078817    0.000000
   1 C    0.073854    0.000000
   2 C   -0.078052    0.000000
   3 C   -0.078411    0.000000
   4 Br  -0.179412    0.000000
   5 H    0.036640    0.000000
   6 H    0.030693    0.000000
   7 H    0.031006    0.000000
   8 H    0.036502    0.000000
   9 H    0.030845    0.000000
  10 H    0.031161    0.000000
  11 H    0.030296    0.000000
  12 H    0.031463    0.000000
  13 H    0.036575    0.000000
  14 Br  -0.951985    0.000000

  TOTAL  -0.997641    0.000000

-------
TIMINGS
-------

Total SCF time: 0 days 0 hours 0 min 13 sec 

Total time                  ....      13.043 sec
Sum of individual times     ....      12.688 sec  ( 97.3%)

Fock matrix formation       ....      11.709 sec  ( 89.8%)
  Split-RI-J                ....       1.601 sec  ( 13.7% of F)
  Chain of spheres X        ....       6.647 sec  ( 56.8% of F)
  COS-X 1 center corr.      ....       0.000 sec  (  0.0% of F)
  XC integration            ....       0.610 sec  (  5.2% of F)
    Basis function eval.    ....       0.235 sec  ( 38.5% of XC)
    Density eval.           ....       0.112 sec  ( 18.4% of XC)
    XC-Functional eval.     ....       0.053 sec  (  8.6% of XC)
    XC-Potential eval.      ....       0.155 sec  ( 25.4% of XC)
Diagonalization             ....       0.020 sec  (  0.2%)
Density matrix formation    ....       0.005 sec  (  0.0%)
Population analysis         ....       0.050 sec  (  0.4%)
Initial guess               ....       0.159 sec  (  1.2%)
Orbital Transformation      ....       0.000 sec  (  0.0%)
Orbital Orthonormalization  ....       0.000 sec  (  0.0%)
DIIS solution               ....       0.006 sec  (  0.0%)
SOSCF solution              ....       0.010 sec  (  0.1%)
Grid generation             ....       0.729 sec  (  5.6%)


-------------------------------------------------------------------------------
                          DFT DISPERSION CORRECTION                            
                                                                               
                              DFTD3 V3.1  Rev 1                                
                          USING Becke-Johnson damping                          
-------------------------------------------------------------------------------
The PBE0 functional is recognized
Active option DFTDOPT                   ...         4   

molecular C6(AA) [au] = 3451.360901 


            DFT-D V3
 parameters
 s6 scaling factor         :     1.0000 
 a1 scaling factor         :     0.4145 
 s8 scaling factor         :     1.2177 
 a2 scaling factor         :     4.8593 
 ad hoc parameters k1-k3   :    16.0000     1.3333    -4.0000 

 Edisp/kcal,au: -7.575299222626  -0.012072006444 
 E6   /kcal   :  -4.571130980 
 E8   /kcal   :  -3.004168243 
 % E8         :  39.657420183 

-------------------------   ----------------
Dispersion correction           -0.012072006
-------------------------   ----------------


-------------------------   --------------------
FINAL SINGLE POINT ENERGY     -5304.824917135414
-------------------------   --------------------


                            ***************************************
                            *     ORCA property calculations      *
                            ***************************************

                                    ---------------------
                                    Active property flags
                                    ---------------------
   (+) Dipole Moment


------------------------------------------------------------------------------
                       ORCA ELECTRIC PROPERTIES CALCULATION
------------------------------------------------------------------------------

Dipole Moment Calculation                       ... on
Quadrupole Moment Calculation                   ... off
Polarizability Calculation                      ... off
GBWName                                         ... manual_reactants_333_freq.gbw
Electron density file                           ... manual_reactants_333_freq.scfp
The origin for moment calculation is the CENTER OF MASS  = ( 0.446965, -0.171261  1.445126)

-------------
DIPOLE MOMENT
-------------
                                X             Y             Z
Electronic contribution:     13.63359      -2.95408      39.49360
Nuclear contribution   :    -15.53903       3.61618     -45.53818
                        -----------------------------------------
Total Dipole Moment    :     -1.90544       0.66210      -6.04458
                        -----------------------------------------
Magnitude (a.u.)       :      6.37228
Magnitude (Debye)      :     16.19706



--------------------
Rotational spectrum 
--------------------
 
Rotational constants in cm-1:     0.148884     0.012654     0.012637 
Rotational constants in MHz :  4463.438201   379.362829   378.861706 

 Dipole components along the rotational axes: 
x,y,z [a.u.] :    -6.371941     0.064507    -0.014825 
x,y,z [Debye]:   -16.196186     0.163963    -0.037681 

 
[1631286082.796446] [comp0809:187360:0]            sys.c:618  UCX  ERROR shmget(size=2097152 flags=0xfb0) for mm_recv_desc failed: Operation not permitted, please check shared memory limits by 'ipcs -l'
[1631286082.800938] [comp0809:187358:0]            sys.c:618  UCX  ERROR shmget(size=2097152 flags=0xfb0) for mm_recv_desc failed: Operation not permitted, please check shared memory limits by 'ipcs -l'
[1631286082.828915] [comp0809:187359:0]            sys.c:618  UCX  ERROR shmget(size=2097152 flags=0xfb0) for mm_recv_desc failed: Operation not permitted, please check shared memory limits by 'ipcs -l'
[1631286082.829641] [comp0809:187361:0]            sys.c:618  UCX  ERROR shmget(size=2097152 flags=0xfb0) for mm_recv_desc failed: Operation not permitted, please check shared memory limits by 'ipcs -l'
[1631286082.838119] [comp0809:187358:0]            sys.c:618  UCX  ERROR shmget(size=2097152 flags=0xb80) for ucp_am_bufs failed: Operation not permitted, please check shared memory limits by 'ipcs -l'


           ************************************************************
           *        Program running with 4 parallel MPI-processes     *
           *              working on a common directory               *
           ************************************************************
[1631286082.865601] [comp0809:187360:0]            sys.c:618  UCX  ERROR shmget(size=2097152 flags=0xb80) for ucp_am_bufs failed: Operation not permitted, please check shared memory limits by 'ipcs -l'
[1631286082.866322] [comp0809:187359:0]            sys.c:618  UCX  ERROR shmget(size=2097152 flags=0xb80) for ucp_am_bufs failed: Operation not permitted, please check shared memory limits by 'ipcs -l'

-------------------------------------------------------------------------------
                               ORCA SCF HESSIAN
-------------------------------------------------------------------------------

Hessian of the Kohn-Sham DFT energy:
Kohn-Sham wavefunction type                      ... RKS
Hartree-Fock exchange scaling                    ...    0.250
Number of operators                              ...    1
Number of atoms                                  ...   15
Basis set dimensions                             ...  165
Integral neglect threshold                       ... 1.0e-10
Integral primitive cutoff                        ... 1.0e-11

Setting up DFT Hessian calculations              ... 
Electron density on the grid                     ... found on disk
Electron density on the final grid               ... found on disk
Building xc-kernel on the grid                   ... done   (      0.0 sec)
Building xc-kernel on the final grid             ... done   (      0.0 sec)
[1631286082.928844] [comp0809:187361:0]            sys.c:618  UCX  ERROR shmget(size=2097152 flags=0xb80) for ucp_am_bufs failed: Operation not permitted, please check shared memory limits by 'ipcs -l'
                                                     done   (      0.1 sec)

Nuclear repulsion Hessian                        ... done   (      0.0 sec)

----------------------------------------------
Forming right-hand sides of CP-SCF equations     ...
----------------------------------------------
One electron integral derivatives                ... done   (      8.7 sec)
Transforming the overlap derivative matrices     ... done   (      0.0 sec)
[1631286093.250263] [comp0809:187360:0]            sys.c:618  UCX  ERROR shmget(size=6291456 flags=0xfb0) for mm_recv_desc failed: Operation not permitted, please check shared memory limits by 'ipcs -l'
[1631286093.252619] [comp0809:187361:0]            sys.c:618  UCX  ERROR shmget(size=6291456 flags=0xfb0) for mm_recv_desc failed: Operation not permitted, please check shared memory limits by 'ipcs -l'
Adding tr(S(x)F(y) C-PCM term to the hessian     ... done   (      1.3 sec)
Making the Q(x) pseudodensities                  ... done   (      0.0 sec)
Adding the E*S(x)*S(y) terms to the Hessian      ... done   (      0.0 sec)
Calculating energy weighted overlap derivatives  ... done   (      0.0 sec)
Two electron integral derivatives (RI)           ... done   (      3.5 sec)
Exchange-correlation integral derivatives        ... done   (      7.3 sec)
tr(F(y)Q(x)) contribution to the Hessian         ... done   (      0.0 sec)
Response fock operator R(S(x)) (RIJCOSX)         ... done   (      5.6 sec)
XC Response fock operator R(S(x))                ... done   (      2.6 sec)
tr(F(y)S(x)) contribution to the Hessian         ... done   (      0.0 sec)
Transforming and finalizing RHSs                 ... done   (      0.0 sec)

----------------------------------------------
Solving the CP-SCF equations (RIJCOSX)           ...
----------------------------------------------
     CP-SCF ITERATION   0: 
     CP-SCF ITERATION   1:      0.000914328148
     CP-SCF ITERATION   2:      0.000060859286
     CP-SCF ITERATION   3:      0.000005705702
     CP-SCF ITERATION   4:      0.000000880510

                                                 ... done   (     21.8 sec)
Forming perturbed density Hessian contributions  ... done   (      0.0 sec)
Calculating [Q*(d^2 A/dXdY)*Q  ] C-PCM term      ... done   (      0.0 sec)
Calculating [d^2(V_N)/(dXdY)*Q ] C-PCM term      ... done   (      0.0 sec)
Calculating [d^2(V_el)/(dXdY)*Q] C-PCM term      ... done   (      0.7 sec)
Calculating C-PCM term that depends on dQ/dX     ... done   (      0.0 sec)
2nd integral derivative contribs (RI)            ... done   (     18.0 sec)
Exchange-correlation Hessian                     ... done   (      7.5 sec)
Dispersion correction in the Hessian             ... done   (      0.8 sec)
Dipol derivatives                                ... done   (      0.3 sec)

Total SCF Hessian time: 0 days 0 hours 1 min 21 sec 

Writing the Hessian file to the disk             ... done


Maximum memory used throughout the entire calculation: 154.7 MB

-----------------------
VIBRATIONAL FREQUENCIES
-----------------------

Scaling factor for frequencies =  1.000000000  (already applied!)

   0:         0.00 cm**-1
   1:         0.00 cm**-1
   2:         0.00 cm**-1
   3:         0.00 cm**-1
   4:         0.00 cm**-1
   5:         0.00 cm**-1
   6:        18.59 cm**-1
   7:        25.65 cm**-1
   8:        40.64 cm**-1
   9:       247.27 cm**-1
  10:       269.09 cm**-1
  11:       272.46 cm**-1
  12:       296.26 cm**-1
  13:       298.46 cm**-1
  14:       299.88 cm**-1
  15:       394.59 cm**-1
  16:       398.48 cm**-1
  17:       520.59 cm**-1
  18:       831.22 cm**-1
  19:       938.69 cm**-1
  20:       939.20 cm**-1
  21:       958.24 cm**-1
  22:      1036.80 cm**-1
  23:      1037.90 cm**-1
  24:      1147.85 cm**-1
  25:      1260.75 cm**-1
  26:      1261.24 cm**-1
  27:      1376.70 cm**-1
  28:      1377.88 cm**-1
  29:      1391.25 cm**-1
  30:      1425.92 cm**-1
  31:      1436.70 cm**-1
  32:      1437.35 cm**-1
  33:      1449.54 cm**-1
  34:      1450.17 cm**-1
  35:      1464.97 cm**-1
  36:      3047.19 cm**-1
  37:      3047.26 cm**-1
  38:      3052.06 cm**-1
  39:      3142.66 cm**-1
  40:      3143.10 cm**-1
  41:      3146.00 cm**-1
  42:      3166.66 cm**-1
  43:      3170.01 cm**-1
  44:      3171.61 cm**-1


------------
NORMAL MODES
------------

These modes are the Cartesian displacements weighted by the diagonal matrix
M(i,i)=1/sqrt(m[i]) where m[i] is the mass of the displaced atom
Thus, these vectors are normalized but *not* orthogonal

                  0          1          2          3          4          5    
      0       0.000000   0.000000   0.000000   0.000000   0.000000   0.000000
      1       0.000000   0.000000   0.000000   0.000000   0.000000   0.000000
      2       0.000000   0.000000   0.000000   0.000000   0.000000   0.000000
      3       0.000000   0.000000   0.000000   0.000000   0.000000   0.000000
      4       0.000000   0.000000   0.000000   0.000000   0.000000   0.000000
      5       0.000000   0.000000   0.000000   0.000000   0.000000   0.000000
      6       0.000000   0.000000   0.000000   0.000000   0.000000   0.000000
      7       0.000000   0.000000   0.000000   0.000000   0.000000   0.000000
      8       0.000000   0.000000   0.000000   0.000000   0.000000   0.000000
      9       0.000000   0.000000   0.000000   0.000000   0.000000   0.000000
     10       0.000000   0.000000   0.000000   0.000000   0.000000   0.000000
     11       0.000000   0.000000   0.000000   0.000000   0.000000   0.000000
     12       0.000000   0.000000   0.000000   0.000000   0.000000   0.000000
     13       0.000000   0.000000   0.000000   0.000000   0.000000   0.000000
     14       0.000000   0.000000   0.000000   0.000000   0.000000   0.000000
     15       0.000000   0.000000   0.000000   0.000000   0.000000   0.000000
     16       0.000000   0.000000   0.000000   0.000000   0.000000   0.000000
     17       0.000000   0.000000   0.000000   0.000000   0.000000   0.000000
     18       0.000000   0.000000   0.000000   0.000000   0.000000   0.000000
     19       0.000000   0.000000   0.000000   0.000000   0.000000   0.000000
     20       0.000000   0.000000   0.000000   0.000000   0.000000   0.000000
     21       0.000000   0.000000   0.000000   0.000000   0.000000   0.000000
     22       0.000000   0.000000   0.000000   0.000000   0.000000   0.000000
     23       0.000000   0.000000   0.000000   0.000000   0.000000   0.000000
     24       0.000000   0.000000   0.000000   0.000000   0.000000   0.000000
     25       0.000000   0.000000   0.000000   0.000000   0.000000   0.000000
     26       0.000000   0.000000   0.000000   0.000000   0.000000   0.000000
     27       0.000000   0.000000   0.000000   0.000000   0.000000   0.000000
     28       0.000000   0.000000   0.000000   0.000000   0.000000   0.000000
     29       0.000000   0.000000   0.000000   0.000000   0.000000   0.000000
     30       0.000000   0.000000   0.000000   0.000000   0.000000   0.000000
     31       0.000000   0.000000   0.000000   0.000000   0.000000   0.000000
     32       0.000000   0.000000   0.000000   0.000000   0.000000   0.000000
     33       0.000000   0.000000   0.000000   0.000000   0.000000   0.000000
     34       0.000000   0.000000   0.000000   0.000000   0.000000   0.000000
     35       0.000000   0.000000   0.000000   0.000000   0.000000   0.000000
     36       0.000000   0.000000   0.000000   0.000000   0.000000   0.000000
     37       0.000000   0.000000   0.000000   0.000000   0.000000   0.000000
     38       0.000000   0.000000   0.000000   0.000000   0.000000   0.000000
     39       0.000000   0.000000   0.000000   0.000000   0.000000   0.000000
     40       0.000000   0.000000   0.000000   0.000000   0.000000   0.000000
     41       0.000000   0.000000   0.000000   0.000000   0.000000   0.000000
     42       0.000000   0.000000   0.000000   0.000000   0.000000   0.000000
     43       0.000000   0.000000   0.000000   0.000000   0.000000   0.000000
     44       0.000000   0.000000   0.000000   0.000000   0.000000   0.000000
                  6          7          8          9         10         11    
      0      -0.190502   0.122530  -0.030329  -0.011310   0.029277   0.115116
      1      -0.102116  -0.126890   0.079059   0.005914  -0.002889  -0.051929
      2      -0.167399  -0.143302  -0.139898  -0.004500   0.208794   0.036001
      3      -0.063076   0.051575  -0.059443   0.002365  -0.052819   0.053293
      4      -0.059768  -0.056940   0.052633   0.003840  -0.059520  -0.057847
      5       0.004761  -0.034920  -0.216647  -0.000442   0.024072  -0.021620
      6      -0.044366   0.039819  -0.061917   0.004833  -0.066876   0.067694
      7      -0.118565  -0.039087   0.068483  -0.006253  -0.074038  -0.089453
      8       0.183932  -0.176433  -0.242991   0.007470  -0.141883   0.104865
      9      -0.090370   0.124921  -0.061832   0.014089  -0.090358  -0.047524
     10      -0.104715  -0.142086   0.082577   0.010615  -0.073728  -0.004620
     11       0.053054   0.160719  -0.264184   0.000012   0.013965  -0.198254
     12       0.131773  -0.134103  -0.078129  -0.001832   0.032653  -0.033680
     13       0.146985   0.138723  -0.037921  -0.002587   0.037591   0.036476
     14      -0.065564   0.041381  -0.205647  -0.000560  -0.018274   0.014315
     15      -0.304600   0.232563  -0.015400  -0.300530   0.123415  -0.089053
     16      -0.221829  -0.240103   0.132224   0.131191   0.188543   0.130398
     17      -0.129258  -0.189706  -0.142773   0.110061   0.181743   0.120866
     18      -0.167616   0.066349  -0.028708   0.247326   0.016436   0.386385
     19      -0.066497  -0.061301   0.056065   0.013574  -0.082981  -0.037896
     20      -0.202293  -0.283635  -0.105339   0.184233   0.317417   0.225155
     21      -0.200278   0.126783  -0.028240  -0.005778   0.037497   0.131394
     22      -0.055423  -0.136436   0.065352  -0.119107  -0.035609  -0.241932
     23      -0.299282  -0.041859  -0.118029  -0.304785   0.342457  -0.175349
     24      -0.156159   0.146514  -0.042483   0.029096   0.073591  -0.067273
     25      -0.239690  -0.155965   0.128226  -0.371356   0.075740   0.064975
     26       0.227183  -0.228317  -0.248306  -0.020046  -0.196221   0.171058
     27      -0.016592  -0.021213  -0.059376  -0.036346  -0.163278   0.122468
     28      -0.078767   0.032855   0.044240   0.188348  -0.171588  -0.211400
     29       0.149939  -0.317933  -0.208659  -0.284394  -0.080723   0.308482
     30       0.050451  -0.010918  -0.083471   0.025198  -0.119510   0.160362
     31      -0.086244   0.014629   0.048229   0.142307  -0.152869  -0.174974
     32       0.311269  -0.094219  -0.299924   0.333413  -0.340927  -0.017187
     33       0.006972   0.073338  -0.086227  -0.229837  -0.368806   0.011676
     34      -0.066715  -0.086190   0.059629  -0.018578  -0.081589  -0.061967
     35       0.174837   0.243741  -0.321353  -0.176261  -0.137396  -0.280535
     36      -0.101578   0.131139  -0.059628   0.041167  -0.060620  -0.056984
     37      -0.060593  -0.150845   0.070673  -0.128860  -0.272877  -0.010293
     38      -0.077244   0.261210  -0.240939   0.270746   0.240234  -0.378324
     39      -0.202448   0.229302  -0.045839   0.254192   0.101664  -0.218898
     40      -0.224498  -0.256377   0.146833   0.194763   0.108848   0.126293
     41       0.101030   0.123051  -0.271963  -0.100185  -0.067235  -0.135083
     42      -0.059625   0.070880   0.115896   0.000024  -0.000941   0.000537
     43      -0.075205  -0.070737  -0.014064   0.000058  -0.000642  -0.000574
     44       0.051156  -0.005570   0.360178   0.000017  -0.000774  -0.000408
                 12         13         14         15         16         17    
      0       0.026000  -0.010708   0.083975  -0.086475  -0.116888  -0.044204
      1       0.021211   0.017335   0.012506   0.144589  -0.084755  -0.110658
      2       0.075141   0.029079   0.122493  -0.002722   0.092207   0.027068
      3      -0.001634   0.004972   0.027630   0.146817   0.029393   0.111163
      4      -0.001765   0.007321  -0.005122   0.034443  -0.155534  -0.006011
      5       0.005737   0.019659   0.051959  -0.057385  -0.017962   0.281202
      6      -0.003455   0.000466   0.039009   0.177542   0.002644   0.114731
      7      -0.014199   0.025887  -0.015537  -0.001217   0.163337   0.014717
      8      -0.041523   0.011688   0.201757  -0.004754   0.005570  -0.033531
      9      -0.023462   0.062070   0.057578  -0.082990   0.113260  -0.059934
     10      -0.015085  -0.023224  -0.009984  -0.142118  -0.085360   0.095198
     11       0.005857   0.115635   0.079586   0.005079  -0.104085   0.037238
     12       0.000668  -0.010972  -0.040477  -0.016400  -0.002625  -0.013647
     13       0.002073  -0.005126   0.003243  -0.003623   0.016750   0.000813
     14      -0.008937  -0.034714  -0.088733   0.005802   0.003345  -0.035373
     15      -0.013852  -0.381854   0.423320  -0.166254  -0.152479  -0.187312
     16       0.129977   0.202960  -0.018482   0.152958  -0.025972  -0.437993
     17       0.094428   0.177590  -0.006414   0.027847   0.108236   0.070667
     18       0.089483   0.318759  -0.159883  -0.281962  -0.256469  -0.073312
     19      -0.007419   0.014018  -0.022530  -0.027459  -0.230118  -0.007207
     20       0.166467   0.290059  -0.014341   0.100434   0.196905  -0.147348
     21       0.030803  -0.003745   0.085804  -0.122873  -0.141024  -0.062806
     22      -0.027346  -0.140271   0.098768   0.441130   0.112022  -0.003980
     23       0.046051  -0.345232   0.487251  -0.043354   0.094349  -0.163469
     24       0.071023  -0.026839  -0.110204   0.132648  -0.004243   0.446194
     25      -0.347960   0.336785  -0.192625  -0.006694   0.267536   0.056042
     26      -0.089249   0.038730   0.258932   0.014395   0.013369  -0.172605
     27      -0.076398   0.049721   0.111361   0.173845   0.297580  -0.060036
     28       0.157351  -0.129611   0.067897  -0.027683   0.360128   0.011865
     29      -0.325749   0.257732   0.142219   0.026748  -0.045597  -0.155949
     30      -0.002505  -0.025620   0.131061   0.237178  -0.321510  -0.049720
     31       0.115687  -0.091292   0.055372  -0.018090   0.295441   0.000090
     32       0.233984  -0.251801   0.409913  -0.005314   0.082220  -0.166201
     33       0.317902   0.158465  -0.040267  -0.343383   0.223850  -0.065656
     34       0.030125   0.022810  -0.009139  -0.007139  -0.159648  -0.002066
     35       0.261976   0.252546   0.034029   0.140037  -0.191954  -0.153615
     36      -0.061485   0.052908   0.070602  -0.056928   0.102732  -0.063257
     37       0.174975   0.062337  -0.051223  -0.475845   0.045692   0.016816
     38      -0.377967   0.086742   0.240211  -0.060260  -0.097757  -0.154213
     39      -0.368092   0.044245   0.202642  -0.158682   0.124385  -0.257912
[...]
     15       0.347715   0.147783   0.008550  -0.072991   0.463797  -0.074539
     16      -0.154510   0.121151  -0.223441  -0.101115  -0.210625  -0.194172
     17      -0.137166  -0.033780  -0.032492   0.007572  -0.184204   0.008578
     18       0.068421  -0.308143   0.391826   0.089245   0.089201   0.356504
     19      -0.100048  -0.125289   0.077004   0.025043  -0.174842   0.115255
     20       0.240661  -0.027504   0.168472   0.045587   0.359401   0.082006
     21      -0.035188   0.029141  -0.050095   0.006048  -0.045393  -0.042432
     22       0.057905  -0.230675   0.324631   0.051148   0.140175   0.301431
     23      -0.271631  -0.290886   0.193344   0.115008  -0.381834   0.225208
     24      -0.030972   0.221082   0.049811  -0.093492  -0.080197   0.182700
     25       0.433883   0.057493  -0.091972   0.451119  -0.261888   0.021363
     26       0.033257  -0.119684  -0.030593   0.069290   0.038220  -0.089990
     27      -0.193443  -0.144266   0.031535  -0.248717   0.138234  -0.117948
     28       0.032330  -0.354246  -0.070182   0.062588   0.048690  -0.264454
     29      -0.220720   0.338224   0.114098  -0.294829   0.036067   0.247291
     30       0.194308  -0.172050  -0.089613   0.262637  -0.124885  -0.161289
     31       0.026390   0.268307   0.043956  -0.002698  -0.057978   0.196433
     32       0.228044   0.418875   0.025619   0.183187  -0.235096   0.283667
     33      -0.053297  -0.155739  -0.494969   0.018292   0.121056   0.373741
     34      -0.090083   0.054330   0.034472   0.134259   0.076477  -0.046871
     35      -0.246115   0.049253  -0.140288   0.291489   0.239199   0.066306
     36       0.030962  -0.017287  -0.032236  -0.033566   0.002191   0.025888
     37       0.041152   0.112943   0.413290  -0.075275  -0.119426  -0.319472
     38       0.278351  -0.194259  -0.263516  -0.382299  -0.118738   0.195775
     39      -0.307298   0.147110   0.110356   0.386042   0.142532  -0.110302
     40      -0.227900   0.006037  -0.226932   0.225525   0.242596   0.171966
     41       0.127356  -0.049437  -0.011271  -0.150385  -0.077040   0.026526
     42       0.000004   0.000008  -0.000000  -0.000006  -0.000016  -0.000001
     43       0.000002  -0.000003  -0.000006  -0.000000   0.000003   0.000002
     44      -0.000004   0.000006  -0.000007  -0.000008  -0.000001  -0.000023
                 36         37         38         39         40         41    
      0       0.002067   0.001099  -0.001994   0.002997  -0.032249  -0.027978
      1       0.028239   0.011516  -0.022909   0.000723  -0.027363  -0.024266
      2      -0.027047  -0.011379   0.021359   0.002055  -0.054606  -0.047769
      3      -0.000099  -0.002123  -0.000169   0.000398   0.000398  -0.001217
      4      -0.002237   0.000128   0.000077  -0.000312   0.000332   0.000285
      5      -0.000072   0.000864  -0.000303  -0.000279   0.000206  -0.003157
      6       0.006372   0.039990   0.029734  -0.002971  -0.002666   0.002564
      7       0.001017   0.004664   0.003532  -0.014553  -0.009127   0.012691
      8       0.002116   0.012687   0.008950   0.058603   0.046589  -0.048908
      9      -0.007123   0.005933  -0.006666  -0.037735   0.022626  -0.026012
     10       0.022429  -0.017373   0.019726   0.024937  -0.012062   0.016472
     11       0.024391  -0.019167   0.020957  -0.053091   0.028246  -0.035381
     12       0.000003   0.000012  -0.000010   0.000011   0.000000   0.000040
     13       0.000009   0.000003   0.000004  -0.000006   0.000016  -0.000004
     14      -0.000000  -0.000005  -0.000042   0.000001  -0.000013   0.000125
     15       0.193751   0.080226  -0.151410  -0.007869   0.178685   0.157476
     16      -0.015578  -0.006404   0.012866   0.000610  -0.019726  -0.019600
     17       0.506216   0.210075  -0.396584  -0.022612   0.471464   0.418458
     18       0.146389   0.059420  -0.115434   0.004074  -0.169026  -0.147565
     19      -0.269838  -0.110306   0.215296  -0.006015   0.302648   0.266237
     20      -0.193453  -0.078369   0.151981  -0.003157   0.203427   0.178501
     21      -0.359261  -0.150280   0.285497  -0.030650   0.374494   0.324343
     22      -0.036676  -0.014905   0.030802  -0.003115   0.038286   0.034334
     23       0.006231   0.002232  -0.006114   0.000502  -0.019486  -0.016593
     24      -0.036055  -0.224776  -0.163374  -0.175394  -0.139025   0.150821
     25       0.003939   0.025766   0.018550   0.017311   0.014525  -0.014619
     26      -0.085565  -0.533376  -0.385824  -0.404037  -0.319377   0.342216
     27      -0.022012  -0.139405  -0.103675   0.103644   0.088725  -0.085390
     28       0.042539   0.277620   0.202213  -0.200127  -0.171910   0.162936
     29       0.031722   0.206839   0.150549  -0.136429  -0.119141   0.112120
     30      -0.015197  -0.096106  -0.072322   0.100633   0.076120  -0.085993
     31      -0.058438  -0.357316  -0.261456   0.355384   0.266950  -0.299211
     32       0.028078   0.171023   0.124917  -0.159925  -0.118744   0.135364
     33      -0.074831   0.057978  -0.063648  -0.096998   0.049000  -0.062929
     34      -0.281185   0.218951  -0.243427  -0.345466   0.173068  -0.228511
     35       0.153049  -0.118527   0.130177   0.175387  -0.086470   0.115107
     36       0.323737  -0.256578   0.280720   0.352118  -0.211877   0.242137
     37       0.033924  -0.027458   0.028064   0.038416  -0.022610   0.025107
     38      -0.013256   0.010080  -0.012504  -0.026943   0.014690  -0.017999
     39      -0.171109   0.133774  -0.144902   0.193914  -0.105465   0.130971
     40      -0.008659   0.006662  -0.007943   0.015089  -0.007922   0.011802
     41      -0.425634   0.332987  -0.362038   0.490541  -0.268934   0.334783
     42      -0.000001  -0.000002   0.000003   0.000003   0.000001   0.000003
     43       0.000000  -0.000002  -0.000005  -0.000003   0.000000   0.000001
     44      -0.000001  -0.000001   0.000019  -0.000003   0.000001  -0.000008
                  42         43         44    
      0      -0.005895  -0.018715  -0.079549
      1       0.002966   0.007406   0.035326
      2       0.003478   0.004662   0.029519
      3       0.000861  -0.000426  -0.001130
      4       0.000724  -0.001236   0.000816
      5      -0.000342  -0.000202   0.000457
      6       0.000700   0.010346  -0.001951
      7      -0.008611  -0.088676   0.020089
      8      -0.003503  -0.019119   0.005410
      9       0.071385  -0.007748  -0.004375
     10       0.054258  -0.005816  -0.002741
     11      -0.027184   0.003496   0.000043
     12      -0.000011   0.000005   0.000012
     13      -0.000014   0.000023  -0.000011
     14       0.000005   0.000010  -0.000006
     15      -0.003750   0.005445  -0.005041
     16       0.000334   0.000234   0.004022
     17      -0.008104   0.020219   0.016030
     18       0.022962   0.054981   0.264733
     19      -0.044828  -0.103149  -0.510203
     20      -0.030874  -0.072956  -0.351896
     21       0.048566   0.164702   0.690461
     22       0.004438   0.020346   0.082877
     23      -0.000665  -0.003822  -0.016263
     24       0.007937   0.028102  -0.009719
     25      -0.001738  -0.013858   0.003951
     26       0.018393   0.060266  -0.022313
     27      -0.032275  -0.297961   0.071462
     28       0.059982   0.559381  -0.130932
     29       0.045288   0.419587  -0.098822
     30       0.011043   0.150615  -0.032793
     31       0.042639   0.513677  -0.113491
     32      -0.020756  -0.251265   0.055155
     33      -0.146438   0.015798   0.006891
     34      -0.591995   0.067860   0.025181
     35       0.311360  -0.034656  -0.013642
     36      -0.708122   0.077389   0.044812
     37      -0.062090   0.006796   0.002468
     38       0.032932  -0.003789  -0.002617
     39       0.002156  -0.002260   0.004640
     40       0.006405  -0.000693  -0.000310
     41      -0.019868  -0.001202   0.012883
     42      -0.000002  -0.000001   0.000004
     43       0.000001  -0.000000  -0.000000
     44       0.000002  -0.000002  -0.000002


-----------
IR SPECTRUM
-----------

 Mode    freq (cm**-1)   T**2         TX         TY         TZ
-------------------------------------------------------------------
   6:        18.59    0.823300  ( -0.226770   0.154904  -0.864800)
   7:        25.65    0.176783  ( -0.150776   0.099526  -0.379663)
   8:        40.64   17.333971  ( -1.230876   0.457880  -3.950856)
   9:       247.27    0.014134  (  0.105108   0.052822   0.017204)
  10:       269.09    0.541756  ( -0.518543  -0.501438   0.146387)
  11:       272.46    0.610200  (  0.472754  -0.571882  -0.244244)
  12:       296.26    0.229168  ( -0.190313  -0.388413   0.205143)
  13:       298.46    1.045190  (  0.094346   0.362098   0.951406)
  14:       299.88    3.438169  (  0.978647  -0.021326   1.574790)
  15:       394.59    0.114175  (  0.332070   0.062084   0.007028)
  16:       398.48    0.120152  (  0.015957  -0.302369  -0.168733)
  17:       520.59   20.833615  (  1.741421  -0.014468   4.219106)
  18:       831.22    9.654140  (  1.118896  -0.051521   2.898199)
  19:       938.69    0.503979  ( -0.673074   0.147188   0.171131)
  20:       939.20    0.460156  (  0.160860   0.658993  -0.002908)
  21:       958.24    0.009022  (  0.067668  -0.037772  -0.054924)
  22:      1036.80    0.673902  (  0.436125   0.656472  -0.229656)
  23:      1037.90    0.643022  ( -0.624176   0.457134   0.210842)
  24:      1147.85  181.216957  ( -4.793127   0.311660 -12.575602)
  25:      1260.75    9.671299  ( -0.441786   3.066667   0.267725)
  26:      1261.24    8.547076  (  2.743952   0.459194  -0.898301)
  27:      1376.70   27.476469  (  0.596592  -5.198957  -0.302317)
  28:      1377.88   26.359563  (  4.801053   0.565443  -1.729084)
  29:      1391.25    1.045498  (  0.751408  -0.031826   0.692727)
  30:      1425.92    0.006546  (  0.005578   0.075940  -0.027342)
  31:      1436.70    0.244809  ( -0.411009  -0.105931   0.254281)
  32:      1437.35    0.268120  ( -0.100507   0.507417   0.023374)
  33:      1449.54   11.461789  (  1.180950   3.138269  -0.467349)
  34:      1450.17   11.065714  (  2.830923  -1.288764  -1.179270)
  35:      1464.97    8.212614  (  1.098184  -0.020228   2.646922)
  36:      3047.19   18.921807  (  0.114352   4.348416   0.003074)
  37:      3047.26   18.141580  (  3.951173  -0.119196  -1.586066)
  38:      3052.06   41.803704  (  2.318396  -0.198315   6.032364)
  39:      3142.66    4.141171  ( -1.906931   0.582490   0.406806)
  40:      3143.10    7.371904  ( -0.712908  -2.425838   0.989433)
  41:      3146.00   43.151617  ( -2.321661   0.204992  -6.141619)
  42:      3166.66   13.830000  (  2.879740   2.073204  -1.113070)
  43:      3170.01   15.812940  ( -0.702501  -3.894964  -0.385601)
  44:      3171.61   21.212843  ( -3.690233   2.305186   1.510347)

The first frequency considered to be a vibration is 6
The total number of vibrations considered is 39


--------------------------
THERMOCHEMISTRY AT 298.15K
--------------------------

Temperature         ... 298.15 K
Pressure            ... 1.00 atm
Total Mass          ... 216.92 AMU

Throughout the following assumptions are being made:
  (1) The electronic state is orbitally nondegenerate
  (2) There are no thermally accessible electronically excited states
  (3) Hindered rotations indicated by low frequency modes are not
      treated as such but are treated as vibrations and this may
      cause some error
  (4) All equations used are the standard statistical mechanics
      equations for an ideal gas
  (5) All vibrations are strictly harmonic

freq.      18.59  E(vib)   ...       0.57 
freq.      25.65  E(vib)   ...       0.56 
freq.      40.64  E(vib)   ...       0.54 
freq.     247.27  E(vib)   ...       0.31 
freq.     269.09  E(vib)   ...       0.29 
freq.     272.46  E(vib)   ...       0.29 
freq.     296.26  E(vib)   ...       0.27 
freq.     298.46  E(vib)   ...       0.26 
freq.     299.88  E(vib)   ...       0.26 
freq.     394.59  E(vib)   ...       0.20 
freq.     398.48  E(vib)   ...       0.20 
freq.     520.59  E(vib)   ...       0.13 
freq.     831.22  E(vib)   ...       0.04 
freq.     938.69  E(vib)   ...       0.03 
freq.     939.20  E(vib)   ...       0.03 
freq.     958.24  E(vib)   ...       0.03 
freq.    1036.80  E(vib)   ...       0.02 
freq.    1037.90  E(vib)   ...       0.02 
freq.    1147.85  E(vib)   ...       0.01 
freq.    1260.75  E(vib)   ...       0.01 
freq.    1261.24  E(vib)   ...       0.01 
freq.    1376.70  E(vib)   ...       0.01 
freq.    1377.88  E(vib)   ...       0.01 
freq.    1391.25  E(vib)   ...       0.00 
freq.    1425.92  E(vib)   ...       0.00 
freq.    1436.70  E(vib)   ...       0.00 
freq.    1437.35  E(vib)   ...       0.00 
freq.    1449.54  E(vib)   ...       0.00 
freq.    1450.17  E(vib)   ...       0.00 
freq.    1464.97  E(vib)   ...       0.00 
freq.    3047.19  E(vib)   ...       0.00 
freq.    3047.26  E(vib)   ...       0.00 
freq.    3052.06  E(vib)   ...       0.00 
freq.    3142.66  E(vib)   ...       0.00 
freq.    3143.10  E(vib)   ...       0.00 
freq.    3146.00  E(vib)   ...       0.00 
freq.    3166.66  E(vib)   ...       0.00 
freq.    3170.01  E(vib)   ...       0.00 
freq.    3171.61  E(vib)   ...       0.00 

------------
INNER ENERGY
------------

The inner energy is: U= E(el) + E(ZPE) + E(vib) + E(rot) + E(trans)
    E(el)   - is the total energy from the electronic structure calculation
              = E(kin-el) + E(nuc-el) + E(el-el) + E(nuc-nuc)
    E(ZPE)  - the the zero temperature vibrational energy from the frequency calculation
    E(vib)  - the the finite temperature correction to E(ZPE) due to population
              of excited vibrational states
    E(rot)  - is the rotational thermal energy
    E(trans)- is the translational thermal energy

Summary of contributions to the inner energy U:
Electronic energy                ...  -5304.82491714 Eh
Zero point energy                ...      0.12163344 Eh      76.33 kcal/mol
Thermal vibrational correction   ...      0.00653080 Eh       4.10 kcal/mol
Thermal rotational correction    ...      0.00141627 Eh       0.89 kcal/mol
Thermal translational correction ...      0.00141627 Eh       0.89 kcal/mol
-----------------------------------------------------------------------
Total thermal energy                  -5304.69392035 Eh


Summary of corrections to the electronic energy:
(perhaps to be used in another calculation)
Total thermal correction                  0.00936335 Eh       5.88 kcal/mol
Non-thermal (ZPE) correction              0.12163344 Eh      76.33 kcal/mol
-----------------------------------------------------------------------
Total correction                          0.13099678 Eh      82.20 kcal/mol


--------
ENTHALPY
--------

The enthalpy is H = U + kB*T
                kB is Boltzmann's constant
Total free energy                 ...  -5304.69392035 Eh 
Thermal Enthalpy correction       ...      0.00094421 Eh       0.59 kcal/mol
-----------------------------------------------------------------------
Total Enthalpy                    ...  -5304.69297614 Eh


Note: Only C1 symmetry has been detected, increase convergence thresholds 
      if your molecule has a higher symmetry. Symmetry factor of 1.0 is   
      used for the rotational entropy correction. 
 

Note: Rotational entropy computed according to Herzberg 
Infrared and Raman Spectra, Chapter V,1, Van Nostrand Reinhold, 1945 
Point Group:  C1, Symmetry Number:   1  
Rotational constants in cm-1:     0.148884     0.012654     0.012637 

Vibrational entropy computed according to the QRRHO of S. Grimme
Chem.Eur.J. 2012 18 9955


-------
ENTROPY
-------

The entropy contributions are T*S = T*(S(el)+S(vib)+S(rot)+S(trans))
     S(el)   - electronic entropy
     S(vib)  - vibrational entropy
     S(rot)  - rotational entropy
     S(trans)- translational entropy
The entropies will be listed as mutliplied by the temperature to get
units of energy

Electronic entropy                ...      0.00000000 Eh      0.00 kcal/mol
Vibrational entropy               ...      0.01202008 Eh      7.54 kcal/mol
Rotational entropy                ...      0.01453642 Eh      9.12 kcal/mol
Translational entropy             ...      0.01996792 Eh     12.53 kcal/mol
-----------------------------------------------------------------------
Final entropy term                ...      0.04652442 Eh     29.19 kcal/mol

In case the symmetry of your molecule has not been determined correctly
or in case you have a reason to use a different symmetry number we print 
out the resulting rotational entropy values for sn=1,12 :
 --------------------------------------------------------
|  sn= 1 | S(rot)=       0.01453642 Eh      9.12 kcal/mol|
|  sn= 2 | S(rot)=       0.01388197 Eh      8.71 kcal/mol|
|  sn= 3 | S(rot)=       0.01349913 Eh      8.47 kcal/mol|
|  sn= 4 | S(rot)=       0.01322751 Eh      8.30 kcal/mol|
|  sn= 5 | S(rot)=       0.01301682 Eh      8.17 kcal/mol|
|  sn= 6 | S(rot)=       0.01284468 Eh      8.06 kcal/mol|
|  sn= 7 | S(rot)=       0.01269913 Eh      7.97 kcal/mol|
|  sn= 8 | S(rot)=       0.01257305 Eh      7.89 kcal/mol|
|  sn= 9 | S(rot)=       0.01246184 Eh      7.82 kcal/mol|
|  sn=10 | S(rot)=       0.01236237 Eh      7.76 kcal/mol|
|  sn=11 | S(rot)=       0.01227238 Eh      7.70 kcal/mol|
|  sn=12 | S(rot)=       0.01219022 Eh      7.65 kcal/mol|
 --------------------------------------------------------


-------------------
GIBBS FREE ENERGY
-------------------

The Gibbs free energy is G = H - T*S

Total enthalpy                    ...  -5304.69297614 Eh 
Total entropy correction          ...     -0.04652442 Eh    -29.19 kcal/mol
-----------------------------------------------------------------------
Final Gibbs free energy         ...  -5304.73950056 Eh

For completeness - the Gibbs free energy minus the electronic energy
G-E(el)                           ...      0.08541657 Eh     53.60 kcal/mol

[1631286166.391971] [comp0809:187417:0]            sys.c:618  UCX  ERROR shmget(size=2097152 flags=0xfb0) for mm_recv_desc failed: Operation not permitted, please check shared memory limits by 'ipcs -l'
[1631286166.392634] [comp0809:187415:0]            sys.c:618  UCX  ERROR shmget(size=2097152 flags=0xfb0) for mm_recv_desc failed: Operation not permitted, please check shared memory limits by 'ipcs -l'
[1631286166.410844] [comp0809:187418:0]            sys.c:618  UCX  ERROR shmget(size=2097152 flags=0xfb0) for mm_recv_desc failed: Operation not permitted, please check shared memory limits by 'ipcs -l'
[1631286166.410991] [comp0809:187416:0]            sys.c:618  UCX  ERROR shmget(size=2097152 flags=0xfb0) for mm_recv_desc failed: Operation not permitted, please check shared memory limits by 'ipcs -l'
[1631286166.419428] [comp0809:187415:0]            sys.c:618  UCX  ERROR shmget(size=2097152 flags=0xb80) for ucp_am_bufs failed: Operation not permitted, please check shared memory limits by 'ipcs -l'
[1631286166.421223] [comp0809:187417:0]            sys.c:618  UCX  ERROR shmget(size=2097152 flags=0xb80) for ucp_am_bufs failed: Operation not permitted, please check shared memory limits by 'ipcs -l'
[1631286166.421557] [comp0809:187416:0]            sys.c:618  UCX  ERROR shmget(size=2097152 flags=0xb80) for ucp_am_bufs failed: Operation not permitted, please check shared memory limits by 'ipcs -l'
[1631286166.429811] [comp0809:187418:0]            sys.c:618  UCX  ERROR shmget(size=2097152 flags=0xb80) for ucp_am_bufs failed: Operation not permitted, please check shared memory limits by 'ipcs -l'

Timings for individual modules:

Sum of individual times         ...      102.696 sec (=   1.712 min)
GTO integral calculation        ...        3.819 sec (=   0.064 min)   3.7 %
SCF iterations                  ...       15.287 sec (=   0.255 min)  14.9 %
Analytical frequency calculation...       83.589 sec (=   1.393 min)  81.4 %
                             ****ORCA TERMINATED NORMALLY****
TOTAL RUN TIME: 0 days 0 hours 1 minutes 45 seconds 214 msec
