
                                 *****************
                                 * O   R   C   A *
                                 *****************

           --- An Ab Initio, DFT and Semiempirical electronic structure package ---

                  #######################################################
                  #                        -***-                        #
                  #          Department of theory and spectroscopy      #
                  #               Directorship: Frank Neese             #
                  #        Max Planck Institute fuer Kohlenforschung    #
                  #                Kaiser Wilhelm Platz 1               #
                  #                 D-45470 Muelheim/Ruhr               #
                  #                      Germany                        #
                  #                                                     #
                  #                  All rights reserved                #
                  #                        -***-                        #
                  #######################################################


                         Program Version 4.2.1 -  RELEASE  -


 With contributions from (in alphabetic order):
   Daniel Aravena         : Magnetic Suceptibility
   Michael Atanasov       : Ab Initio Ligand Field Theory (pilot matlab implementation)
   Alexander A. Auer      : GIAO ZORA, VPT2
   Ute Becker             : Parallelization
   Giovanni Bistoni       : ED, misc. LED, open-shell LED, HFLD
   Martin Brehm           : Molecular dynamics
   Dmytro Bykov           : SCF Hessian
   Vijay G. Chilkuri      : MRCI spin determinant printing, contributions to CSF-ICE
   Dipayan Datta          : RHF DLPNO-CCSD density
   Achintya Kumar Dutta   : EOM-CC, STEOM-CC
   Dmitry Ganyushin       : Spin-Orbit,Spin-Spin,Magnetic field MRCI
   Miquel Garcia          : C-PCM Hessian, Gaussian charge scheme
   Yang Guo               : DLPNO-NEVPT2, CIM, IAO-localization
   Andreas Hansen         : Spin unrestricted coupled pair/coupled cluster methods
   Benjamin Helmich-Paris : CASSCF linear response (MC-RPA)
   Lee Huntington         : MR-EOM, pCC
   Robert Izsak           : Overlap fitted RIJCOSX, COSX-SCS-MP3, EOM
   Christian Kollmar      : KDIIS, OOCD, Brueckner-CCSD(T), CCSD density
   Simone Kossmann        : Meta GGA functionals, TD-DFT gradient, OOMP2, MP2 Hessian
   Martin Krupicka        : AUTO-CI
   Lucas Lang             : DCDCAS
   Dagmar Lenk            : GEPOL surface, SMD
   Dimitrios Liakos       : Extrapolation schemes; Compound Job, initial MDCI parallelization
   Dimitrios Manganas     : Further ROCIS development; embedding schemes
   Dimitrios Pantazis     : SARC Basis sets
   Taras Petrenko         : DFT Hessian,TD-DFT gradient, ASA, ECA, R-Raman, ABS, FL, XAS/XES, NRVS
   Peter Pinski           : DLPNO-MP2, DLPNO-MP2 Gradient
   Christoph Reimann      : Effective Core Potentials
   Marius Retegan         : Local ZFS, SOC
   Christoph Riplinger    : Optimizer, TS searches, QM/MM, DLPNO-CCSD(T), (RO)-DLPNO pert. Triples
   Tobias Risthaus        : Range-separated hybrids, TD-DFT gradient, RPA, STAB
   Michael Roemelt        : Original ROCIS implementation
   Masaaki Saitow         : Open-shell DLPNO-CCSD energy and density
   Barbara Sandhoefer     : DKH picture change effects
   Avijit Sen             : IP-ROCIS
   Kantharuban Sivalingam : CASSCF convergence, NEVPT2, FIC-MRCI
   Bernardo de Souza      : ESD, SOC TD-DFT
   Georgi Stoychev        : AutoAux, RI-MP2 NMR
   Willem Van den Heuvel  : Paramagnetic NMR
   Boris Wezisla          : Elementary symmetry handling
   Frank Wennmohs         : Technical directorship


 We gratefully acknowledge several colleagues who have allowed us to
 interface, adapt or use parts of their codes:
   Stefan Grimme, W. Hujo, H. Kruse,             : VdW corrections, initial TS optimization,
                  C. Bannwarth                     DFT functionals, gCP, sTDA/sTD-DF
   Ed Valeev, F. Pavosevic, A. Kumar             : LibInt (2-el integral package), F12 methods
   Garnet Chan, S. Sharma, J. Yang, R. Olivares  : DMRG
   Ulf Ekstrom                                   : XCFun DFT Library
   Mihaly Kallay                                 : mrcc  (arbitrary order and MRCC methods)
   Andreas Klamt, Michael Diedenhofen            : otool_cosmo (COSMO solvation model)
   Jiri Pittner, Ondrej Demel                    : Mk-CCSD
   Frank Weinhold                                : gennbo (NPA and NBO analysis)
   Christopher J. Cramer and Donald G. Truhlar   : smd solvation model
   Lars Goerigk                                  : TD-DFT with DH, B97 family of functionals
   V. Asgeirsson, H. Jonsson                     : NEB implementation
   FAccTs GmbH                                   : IRC, NEB, NEB-TS, Multilevel, MM, QM/MM, CI optimization
   S Lehtola, MJT Oliveira, MAL Marques          : LibXC Library


 Your calculation uses the libint2 library for the computation of 2-el integrals
 For citations please refer to: http://libint.valeyev.net

 Your ORCA version has been built with support for libXC version: 4.2.3
 For citations please refer to: https://tddft.org/programs/libxc/

 This ORCA versions uses:
   CBLAS   interface :  Fast vector & matrix operations
   LAPACKE interface :  Fast linear algebra routines
   SCALAPACK package :  Parallel linear algebra routines


Your calculation utilizes the atom-pairwise dispersion correction
with the Becke-Johnson damping scheme (D3BJ)
Cite in your paper:
S.Grimme, S.Ehrlich, L.Goerigk, J Comput Chem, (2011), 32, 1456–1465 
S.Grimme, J.Antony, S.Ehrlich and H.Krieg, J.Chem.Phys., 132, (2010), 154104 
   

----- Orbital basis set information -----
Your calculation utilizes the basis: def2-SVP
   F. Weigend and R. Ahlrichs, Phys. Chem. Chem. Phys. 7, 3297 (2005).

----- AuxJ basis set information -----
Your calculation utilizes the auxiliary basis: def2/J
   F. Weigend, Phys. Chem. Chem. Phys. 8, 1057 (2006).

================================================================================
                                        WARNINGS
                       Please study these warnings very carefully!
================================================================================


INFO   : the flag for use of LIBINT has been found!

================================================================================
                                       INPUT FILE
================================================================================
NAME = manual_reactants_330_freq.inp
|  1> ! Freq PBE0 RIJCOSX D3BJ def2-SVP def2/J CPCM(Acetone)
|  2> %geom MaxIter 100 end
|  3> %output 
|  4> xyzfile=True 
|  5> end 
|  6> %scf 
|  7> maxiter 250 
|  8> end
|  9> %output
| 10> Print[P_Hirshfeld] = 1
| 11> end
| 12> % maxcore
| 13> 4000
| 14> %pal nprocs 4
| 15> end
| 16> *xyz -1 1
| 17>   C   1.41700288821761      0.00090613864985      0.26849819360519
| 18>   C   0.35382184878315      0.91220487798168     -0.32937538065915
| 19>   C   -0.72031643014092      1.27614019704133      0.68960266339731
| 20>   C   -0.21811286740130      0.39097389414160     -1.63415254549130
| 21>   Br  -1.11201436074547     -1.35498283038357     -1.47476873771793
| 22>   H   1.89776633357160      0.49168377337067      1.12923069410356
| 23>   H   0.96594253674738     -0.93968053573454      0.62498489674897
| 24>   H   2.19431730878892     -0.25431885252935     -0.46837280549503
| 25>   H   0.85298551269917      1.85053697348755     -0.64167184717158
| 26>   H   -1.47536472594162      1.95135111978545      0.25692923733628
| 27>   H   -1.23997894392062      0.37468616520873      1.05325096280170
| 28>   H   -0.26694639683976      1.77525416747473      1.56006326322713
| 29>   H   -0.98775537659885      1.06068161087586     -2.03889341445779
| 30>   H   0.56290447460408      0.23273962772923     -2.38831012337801
| 31>   Br  2.30476819817664      2.15184367290077      3.73633494315065
| 32> *
| 33> 
| 34>                          ****END OF INPUT****
================================================================================

                       ****************************
                       * Single Point Calculation *
                       ****************************

---------------------------------
CARTESIAN COORDINATES (ANGSTROEM)
---------------------------------
  C      1.417003    0.000906    0.268498
  C      0.353822    0.912205   -0.329375
  C     -0.720316    1.276140    0.689603
  C     -0.218113    0.390974   -1.634153
  Br    -1.112014   -1.354983   -1.474769
  H      1.897766    0.491684    1.129231
  H      0.965943   -0.939681    0.624985
  H      2.194317   -0.254319   -0.468373
  H      0.852986    1.850537   -0.641672
  H     -1.475365    1.951351    0.256929
  H     -1.239979    0.374686    1.053251
  H     -0.266946    1.775254    1.560063
  H     -0.987755    1.060682   -2.038893
  H      0.562904    0.232740   -2.388310
  Br     2.304768    2.151844    3.736335

----------------------------
CARTESIAN COORDINATES (A.U.)
----------------------------
  NO LB      ZA    FRAG     MASS         X           Y           Z
   0 C     6.0000    0    12.011    2.677747    0.001712    0.507388
   1 C     6.0000    0    12.011    0.668626    1.723817   -0.622429
   2 C     6.0000    0    12.011   -1.361201    2.411555    1.303160
   3 C     6.0000    0    12.011   -0.412174    0.738834   -3.088101
   4 Br   35.0000    0    79.900   -2.101403   -2.560546   -2.786909
   5 H     1.0000    0     1.008    3.586259    0.929148    2.133937
   6 H     1.0000    0     1.008    1.825367   -1.775739    1.181050
   7 H     1.0000    0     1.008    4.146659   -0.480593   -0.885096
   8 H     1.0000    0     1.008    1.611909    3.497008   -1.212584
   9 H     1.0000    0     1.008   -2.788035    3.687519    0.485526
  10 H     1.0000    0     1.008   -2.343221    0.708054    1.990356
  11 H     1.0000    0     1.008   -0.504456    3.354744    2.948092
  12 H     1.0000    0     1.008   -1.866587    2.004398   -3.852950
  13 H     1.0000    0     1.008    1.063735    0.439814   -4.513252
  14 Br   35.0000    0    79.900    4.355381    4.066395    7.060650

--------------------------------
INTERNAL COORDINATES (ANGSTROEM)
--------------------------------
 C      0   0   0     0.000000000000     0.00000000     0.00000000
 C      1   0   0     1.522587313005     0.00000000     0.00000000
 C      2   1   0     1.524643634748   111.86229054     0.00000000
 C      2   1   3     1.516982039432   113.28807537   230.82762364
 Br     4   2   1     1.967950192941   113.98089284    61.04353773
 H      1   2   3     1.101297695696   110.18176668   301.07602486
 H      1   2   3     1.102379926439   110.60638464    60.19548577
 H      1   2   3     1.101061475970   111.64814458   180.37316765
 H      2   1   3     1.107772796121   107.63962732   118.09534355
 H      3   2   1     1.101459946073   111.51454854   178.86890652
 H      3   2   1     1.102228916965   110.94261884   299.20552525
 H      3   2   1     1.101072567288   110.27188878    58.44051732
 H      4   2   1     1.097576051501   111.83265126   179.47751522
 H      4   2   1     1.097169004240   111.86281881   302.71296029
 Br     6   1   2     3.117494823604   161.42600280    40.83105881

---------------------------
INTERNAL COORDINATES (A.U.)
---------------------------
 C      0   0   0     0.000000000000     0.00000000     0.00000000
 C      1   0   0     2.877273036563     0.00000000     0.00000000
 C      2   1   0     2.881158921500   111.86229054     0.00000000
 C      2   1   3     2.866680604604   113.28807537   230.82762364
 Br     4   2   1     3.718886909857   113.98089284    61.04353773
 H      1   2   3     2.081151036784   110.18176668   301.07602486
 H      1   2   3     2.083196156502   110.60638464    60.19548577
 H      1   2   3     2.080704646195   111.64814458   180.37316765
 H      2   1   3     2.093387203278   107.63962732   118.09534355
 H      3   2   1     2.081457645562   111.51454854   178.86890652
 H      3   2   1     2.082910789953   110.94261884   299.20552525
 H      3   2   1     2.080725605747   110.27188878    58.44051732
 H      4   2   1     2.074118148488   111.83265126   179.47751522
 H      4   2   1     2.073348940640   111.86281881   302.71296029
 Br     6   1   2     5.891211440529   161.42600280    40.83105881

---------------------
BASIS SET INFORMATION
---------------------
There are 3 groups of distinct atoms

 Group   1 Type C   : 7s4p1d contracted to 3s2p1d pattern {511/31/1}
 Group   2 Type Br  : 14s10p6d contracted to 5s4p3d pattern {63311/5311/411}
 Group   3 Type H   : 4s1p contracted to 2s1p pattern {31/1}

Atom   0C    basis set group =>   1
Atom   1C    basis set group =>   1
Atom   2C    basis set group =>   1
Atom   3C    basis set group =>   1
Atom   4Br   basis set group =>   2
Atom   5H    basis set group =>   3
Atom   6H    basis set group =>   3
Atom   7H    basis set group =>   3
Atom   8H    basis set group =>   3
Atom   9H    basis set group =>   3
Atom  10H    basis set group =>   3
Atom  11H    basis set group =>   3
Atom  12H    basis set group =>   3
Atom  13H    basis set group =>   3
Atom  14Br   basis set group =>   2
---------------------------------
AUXILIARY/J BASIS SET INFORMATION
---------------------------------
There are 3 groups of distinct atoms

 Group   1 Type C   : 12s5p4d2f1g contracted to 6s4p3d1f1g pattern {711111/2111/211/2/1}
 Group   2 Type Br  : 19s5p5d3f1g contracted to 8s4p3d2f1g pattern {121111111/2111/311/21/1}
 Group   3 Type H   : 5s2p1d contracted to 3s1p1d pattern {311/2/1}

Atom   0C    basis set group =>   1
Atom   1C    basis set group =>   1
Atom   2C    basis set group =>   1
Atom   3C    basis set group =>   1
Atom   4Br   basis set group =>   2
Atom   5H    basis set group =>   3
Atom   6H    basis set group =>   3
Atom   7H    basis set group =>   3
Atom   8H    basis set group =>   3
Atom   9H    basis set group =>   3
Atom  10H    basis set group =>   3
Atom  11H    basis set group =>   3
Atom  12H    basis set group =>   3
Atom  13H    basis set group =>   3
Atom  14Br   basis set group =>   2
[1631286046.915228] [comp0802:208591:0]            sys.c:618  UCX  ERROR shmget(size=2097152 flags=0xfb0) for mm_recv_desc failed: Operation not permitted, please check shared memory limits by 'ipcs -l'
[1631286046.915889] [comp0802:208594:0]            sys.c:618  UCX  ERROR shmget(size=2097152 flags=0xfb0) for mm_recv_desc failed: Operation not permitted, please check shared memory limits by 'ipcs -l'
[1631286046.915931] [comp0802:208589:0]            sys.c:618  UCX  ERROR shmget(size=2097152 flags=0xfb0) for mm_recv_desc failed: Operation not permitted, please check shared memory limits by 'ipcs -l'
[1631286046.930727] [comp0802:208598:0]            sys.c:618  UCX  ERROR shmget(size=2097152 flags=0xfb0) for mm_recv_desc failed: Operation not permitted, please check shared memory limits by 'ipcs -l'
[1631286046.975728] [comp0802:208594:0]            sys.c:618  UCX  ERROR shmget(size=2097152 flags=0xb80) for ucp_am_bufs failed: Operation not permitted, please check shared memory limits by 'ipcs -l'
[1631286046.976652] [comp0802:208598:0]            sys.c:618  UCX  ERROR shmget(size=2097152 flags=0xb80) for ucp_am_bufs failed: Operation not permitted, please check shared memory limits by 'ipcs -l'
[1631286046.977201] [comp0802:208589:0]            sys.c:618  UCX  ERROR shmget(size=2097152 flags=0xb80) for ucp_am_bufs failed: Operation not permitted, please check shared memory limits by 'ipcs -l'
[1631286046.982927] [comp0802:208591:0]            sys.c:618  UCX  ERROR shmget(size=2097152 flags=0xb80) for ucp_am_bufs failed: Operation not permitted, please check shared memory limits by 'ipcs -l'


           ************************************************************
           *        Program running with 4 parallel MPI-processes     *
           *              working on a common directory               *
           ************************************************************
------------------------------------------------------------------------------
                           ORCA GTO INTEGRAL CALCULATION
                           -- RI-GTO INTEGRALS CHOSEN --
------------------------------------------------------------------------------

                         BASIS SET STATISTICS AND STARTUP INFO

Gaussian basis set:
 # of primitive gaussian shells          ...  153
 # of primitive gaussian functions       ...  307
 # of contracted shells                  ...   75
 # of contracted basis functions         ...  165
 Highest angular momentum                ...    2
 Maximum contraction depth               ...    6
Auxiliary gaussian basis set:
 # of primitive gaussian shells          ...  234
 # of primitive gaussian functions       ...  602
 # of contracted shells                  ...  141
 # of contracted aux-basis functions     ...  411
 Highest angular momentum                ...    4
 Maximum contraction depth               ...   12
Ratio of auxiliary to basis functions    ...  2.49
Integral package used                  ... LIBINT
 One Electron integrals                  ... done
 Ordering auxiliary basis shells         ... done
 Integral threshhold             Thresh  ...  1.000e-10
 Primitive cut-off               TCut    ...  1.000e-11
 Pre-screening matrix                    ... done
 Shell pair data                         ... 
 Ordering of the shell pairs             ... done (   0.000 sec) 2474 of 2850 pairs
 Determination of significant pairs      ... done (   0.000 sec)
 Creation of shell pair data             ... done (   0.000 sec)
 Storage of shell pair data              ... done (   0.019 sec)
 Shell pair data done in (   0.020 sec)
 Computing two index integrals           ... done
 Cholesky decomposition of the V-matrix  ... done


Timings:
 Total evaluation time                   ...   0.374 sec (  0.006 min)
 One electron matrix time                ...   0.037 sec (  0.001 min) =  9.9%
 Schwartz matrix evaluation time         ...   0.131 sec (  0.002 min) = 35.0%
 Two index repulsion integral time       ...   0.004 sec (  0.000 min) =  0.9%
 Cholesky decomposition of V             ...   0.152 sec (  0.003 min) = 40.6%
 Three index repulsion integral time     ...   0.000 sec (  0.000 min) =  0.0%

[1631286049.765463] [comp0802:208657:0]            sys.c:618  UCX  ERROR shmget(size=2097152 flags=0xfb0) for mm_recv_desc failed: Operation not permitted, please check shared memory limits by 'ipcs -l'
[1631286049.769017] [comp0802:208660:0]            sys.c:618  UCX  ERROR shmget(size=2097152 flags=0xfb0) for mm_recv_desc failed: Operation not permitted, please check shared memory limits by 'ipcs -l'
[1631286049.788326] [comp0802:208656:0]            sys.c:618  UCX  ERROR shmget(size=2097152 flags=0xfb0) for mm_recv_desc failed: Operation not permitted, please check shared memory limits by 'ipcs -l'
[1631286049.795229] [comp0802:208663:0]            sys.c:618  UCX  ERROR shmget(size=2097152 flags=0xfb0) for mm_recv_desc failed: Operation not permitted, please check shared memory limits by 'ipcs -l'
[1631286049.831089] [comp0802:208660:0]            sys.c:618  UCX  ERROR shmget(size=2097152 flags=0xb80) for ucp_am_bufs failed: Operation not permitted, please check shared memory limits by 'ipcs -l'
[1631286049.831663] [comp0802:208656:0]            sys.c:618  UCX  ERROR shmget(size=2097152 flags=0xb80) for ucp_am_bufs failed: Operation not permitted, please check shared memory limits by 'ipcs -l'


           ************************************************************
           *        Program running with 4 parallel MPI-processes     *
           *              working on a common directory               *
           ************************************************************
[1631286049.834780] [comp0802:208657:0]            sys.c:618  UCX  ERROR shmget(size=2097152 flags=0xb80) for ucp_am_bufs failed: Operation not permitted, please check shared memory limits by 'ipcs -l'
-------------------------------------------------------------------------------
                                 ORCA SCF
-------------------------------------------------------------------------------

------------
SCF SETTINGS
------------
Hamiltonian:
 Density Functional     Method          .... DFT(GTOs)
 Exchange Functional    Exchange        .... PBE
   PBE kappa parameter   XKappa         ....  0.804000
   PBE mue parameter    XMuePBE         ....  0.219520
 Correlation Functional Correlation     .... PBE
   PBE beta parameter  CBetaPBE         ....  0.066725
 LDA part of GGA corr.  LDAOpt          .... PW91-LDA
 Gradients option       PostSCFGGA      .... off
 Hybrid DFT is turned on
   Fraction HF Exchange ScalHFX         ....  0.250000
   Scaling of DF-GGA-X  ScalDFX         ....  0.750000
   Scaling of DF-GGA-C  ScalDFC         ....  1.000000
   Scaling of DF-LDA-C  ScalLDAC        ....  1.000000
   Perturbative correction              ....  0.000000
   Density functional embedding theory  .... OFF
   NL short-range parameter             ....  6.900000
 RI-approximation to the Coulomb term is turned on
   Number of auxiliary basis functions  .... 411
   RIJ-COSX (HFX calculated with COS-X)).... on


General Settings:
 Integral files         IntName         .... manual_reactants_330_freq
 Hartree-Fock type      HFTyp           .... RHF
 Total Charge           Charge          ....   -1
 Multiplicity           Mult            ....    1
 Number of Electrons    NEL             ....  104
 Basis Dimension        Dim             ....  165
 Nuclear Repulsion      ENuc            ....    556.9507722816 Eh

Convergence Acceleration:
 DIIS                   CNVDIIS         .... on
   Start iteration      DIISMaxIt       ....    12
   Startup error        DIISStart       ....  0.200000
   # of expansion vecs  DIISMaxEq       ....     5
   Bias factor          DIISBfac        ....   1.050
   Max. coefficient     DIISMaxC        ....  10.000
 Newton-Raphson         CNVNR           .... off
 SOSCF                  CNVSOSCF        .... on
   Start iteration      SOSCFMaxIt      ....   150
   Startup grad/error   SOSCFStart      ....  0.003300
 Level Shifting         CNVShift        .... on
   Level shift para.    LevelShift      ....    0.2500
   Turn off err/grad.   ShiftErr        ....    0.0010
 Zerner damping         CNVZerner       .... off
 Static damping         CNVDamp         .... on
   Fraction old density DampFac         ....    0.7000
   Max. Damping (<1)    DampMax         ....    0.9800
   Min. Damping (>=0)   DampMin         ....    0.0000
   Turn off err/grad.   DampErr         ....    0.1000
 Fernandez-Rico         CNVRico         .... off

SCF Procedure:
 Maximum # iterations   MaxIter         ....   250
 SCF integral mode      SCFMode         .... Direct
   Integral package                     .... LIBINT
 Reset frequency        DirectResetFreq ....    20
 Integral Threshold     Thresh          ....  1.000e-10 Eh
 Primitive CutOff       TCut            ....  1.000e-11 Eh

Convergence Tolerance:
 Convergence Check Mode ConvCheckMode   .... Total+1el-Energy
 Convergence forced     ConvForced      .... 0
 Energy Change          TolE            ....  1.000e-06 Eh
 1-El. energy change                    ....  1.000e-03 Eh
 Orbital Gradient       TolG            ....  5.000e-05
 Orbital Rotation angle TolX            ....  5.000e-05
 DIIS Error             TolErr          ....  1.000e-06


Diagonalization of the overlap matrix:
Smallest eigenvalue                        ... 2.096e-03
Time for diagonalization                   ...    0.157 sec
Threshold for overlap eigenvalues          ... 1.000e-08
Number of eigenvalues below threshold      ... 0
[1631286049.995908] [comp0802:208663:0]            sys.c:618  UCX  ERROR shmget(size=2097152 flags=0xb80) for ucp_am_bufs failed: Operation not permitted, please check shared memory limits by 'ipcs -l'
Time for construction of square roots      ...    0.002 sec
Total time needed                          ...    0.159 sec

-------------------
DFT GRID GENERATION
-------------------

General Integration Accuracy     IntAcc      ...  4.340
Radial Grid Type                 RadialGrid  ... Gauss-Chebyshev
Angular Grid (max. acc.)         AngularGrid ... Lebedev-110
Angular grid pruning method      GridPruning ... 3 (G Style)
Weight generation scheme         WeightScheme... Becke
Basis function cutoff            BFCut       ...    1.0000e-10
Integration weight cutoff        WCut        ...    1.0000e-14
Grids for H and He will be reduced by one unit

# of grid points (after initial pruning)     ...  19550 (   0.0 sec)
# of grid points (after weights+screening)   ...  18378 (   0.0 sec)
nearest neighbour list constructed           ...    0.0 sec
Grid point re-assignment to atoms done       ...    0.0 sec
Grid point division into batches done        ...    0.0 sec
Reduced shell lists constructed in    0.0 sec

Total number of grid points                  ...    18378
Total number of batches                      ...      295
Average number of points per batch           ...       62
Average number of grid points per atom       ...     1225
Average number of shells per batch           ...    53.81 (71.75%)
Average number of basis functions per batch  ...   113.36 (68.70%)
Average number of large shells per batch     ...    43.99 (81.74%)
Average number of large basis fcns per batch ...    89.56 (79.00%)
Maximum spatial batch extension              ...  17.80, 18.06, 17.34 au
Average spatial batch extension              ...   0.66,  0.66,  0.68 au

Time for grid setup =    0.067 sec

------------------------------
INITIAL GUESS: MODEL POTENTIAL
------------------------------
Loading Hartree-Fock densities                     ... done
Calculating cut-offs                               ... done
Setting up the integral package                    ... done
Initializing the effective Hamiltonian             ... done
Starting the Coulomb interaction                   ... done (   0.0 sec)
Reading the grid                                   ... done
Mapping shells                                     ... done
Starting the XC term evaluation                    ... done (   0.0 sec)
  promolecular density results
     # of electrons  =    102.999104860
     EX              =   -201.620428330
     EC              =     -4.485374541
     EX+EC           =   -206.105802871
Transforming the Hamiltonian                       ... done (   0.0 sec)
Diagonalizing the Hamiltonian                      ... done (   0.0 sec)
Back transforming the eigenvectors                 ... done (   0.0 sec)
Now organizing SCF variables                       ... done
                      ------------------
                      INITIAL GUESS DONE (   0.2 sec)
                      ------------------
--------------------
COSX GRID GENERATION
--------------------

General Integration Accuracy     IntAcc      ...  3.340
Radial Grid Type                 RadialGrid  ... Gauss-Chebyshev
Angular Grid (max. acc.)         AngularGrid ... Lebedev-50
Angular grid pruning method      GridPruning ... 3 (G Style)
Weight generation scheme         WeightScheme... Becke
Basis function cutoff            BFCut       ...    1.0000e-10
Integration weight cutoff        WCut        ...    1.0000e-14
Grids for H and He will be reduced by one unit

# of grid points (after initial pruning)     ...   7284 (   0.0 sec)
# of grid points (after weights+screening)   ...   6859 (   0.0 sec)
nearest neighbour list constructed           ...    0.0 sec
Grid point re-assignment to atoms done       ...    0.0 sec
Grid point division into batches done        ...    0.0 sec
Reduced shell lists constructed in    0.0 sec

Total number of grid points                  ...     6859
Total number of batches                      ...      115
Average number of points per batch           ...       59
Average number of grid points per atom       ...      457
Average number of shells per batch           ...    55.33 (73.78%)
Average number of basis functions per batch  ...   117.00 (70.91%)
Average number of large shells per batch     ...    46.13 (83.37%)
Average number of large basis fcns per batch ...    94.80 (81.03%)
Maximum spatial batch extension              ...  12.88, 16.93, 13.15 au
Average spatial batch extension              ...   0.75,  0.86,  0.78 au

Overlap Fitting                  UseSFitting ... on
Constructing numerical overlap ... done (      0.0 sec)
Inverting numerical overlap    ... done (      0.0 sec)
Obtaining analytic overlap     ... done (      0.0 sec)
Final contraction and storage  ... done (      0.0 sec)


General Integration Accuracy     IntAcc      ...  3.670
Radial Grid Type                 RadialGrid  ... Gauss-Chebyshev
Angular Grid (max. acc.)         AngularGrid ... Lebedev-50
Angular grid pruning method      GridPruning ... 3 (G Style)
Weight generation scheme         WeightScheme... Becke
Basis function cutoff            BFCut       ...    1.0000e-10
Integration weight cutoff        WCut        ...    1.0000e-14
Grids for H and He will be reduced by one unit

# of grid points (after initial pruning)     ...   9160 (   0.0 sec)
# of grid points (after weights+screening)   ...   8598 (   0.0 sec)
nearest neighbour list constructed           ...    0.0 sec
Grid point re-assignment to atoms done       ...    0.0 sec
Grid point division into batches done        ...    0.0 sec
Reduced shell lists constructed in    0.0 sec

Total number of grid points                  ...     8598
Total number of batches                      ...      144
Average number of points per batch           ...       59
Average number of grid points per atom       ...      573
Average number of shells per batch           ...    55.22 (73.62%)
Average number of basis functions per batch  ...   116.68 (70.71%)
Average number of large shells per batch     ...    45.95 (83.21%)
Average number of large basis fcns per batch ...    93.51 (80.15%)
Maximum spatial batch extension              ...  13.86, 17.87, 14.26 au
Average spatial batch extension              ...   0.69,  0.77,  0.70 au

Overlap Fitting                  UseSFitting ... on
Constructing numerical overlap ... done (      0.0 sec)
Inverting numerical overlap    ... done (      0.0 sec)
Obtaining analytic overlap     ... done (      0.0 sec)
Final contraction and storage  ... done (      0.0 sec)


General Integration Accuracy     IntAcc      ...  4.010
Radial Grid Type                 RadialGrid  ... Gauss-Chebyshev
Angular Grid (max. acc.)         AngularGrid ... Lebedev-110
Angular grid pruning method      GridPruning ... 3 (G Style)
Weight generation scheme         WeightScheme... Becke
Basis function cutoff            BFCut       ...    1.0000e-10
Integration weight cutoff        WCut        ...    1.0000e-14
Grids for H and He will be reduced by one unit

# of grid points (after initial pruning)     ...  17048 (   0.0 sec)
# of grid points (after weights+screening)   ...  16065 (   0.0 sec)
nearest neighbour list constructed           ...    0.0 sec
Grid point re-assignment to atoms done       ...    0.0 sec
Grid point division into batches done        ...    0.0 sec
Reduced shell lists constructed in    0.0 sec

Total number of grid points                  ...    16065
Total number of batches                      ...      259
Average number of points per batch           ...       62
Average number of grid points per atom       ...     1071
Average number of shells per batch           ...    53.71 (71.62%)
Average number of basis functions per batch  ...   112.89 (68.42%)
Average number of large shells per batch     ...    44.09 (82.09%)
Average number of large basis fcns per batch ...    90.06 (79.77%)
Maximum spatial batch extension              ...  17.29, 17.85, 17.17 au
Average spatial batch extension              ...   0.73,  0.70,  0.73 au

Overlap Fitting                  UseSFitting ... on
Constructing numerical overlap ... done (      0.0 sec)
Inverting numerical overlap    ... done (      0.0 sec)
Obtaining analytic overlap     ... done (      0.0 sec)
Final contraction and storage  ... done (      0.0 sec)

Time for X-Grid setup             =    0.191 sec

--------------------
CPCM SOLVATION MODEL
--------------------
CPCM parameters:
  Epsilon                                         ...      20.7000
  Refrac                                          ...       1.3590
  Rsolv                                           ...       1.3000
  Surface type                                    ...    GEPOL SES
  Epsilon function type                           ...         CPCM
Radii:
 Radius for C  used is    3.7795 Bohr (=   2.0000 Ang.)
 Radius for Br used is    4.0818 Bohr (=   2.1600 Ang.)
 Radius for H  used is    2.4566 Bohr (=   1.3000 Ang.)
Calculating surface                               ...        done! (  0.1s)
GEPOL surface points                              ...          617
GEPOL Volume                                      ...    1172.9345
GEPOL Surface-area                                ...     667.6565
Calculating surface distance matrix               ...        done! (  0.0s)
Performing Cholesky decomposition & store         ...        done! (  0.0s)
Overall time for CPCM initialization              ...                 0.1s
--------------
SCF ITERATIONS
--------------
ITER       Energy         Delta-E        Max-DP      RMS-DP      [F,P]     Damp
               ***  Starting incremental Fock matrix formation  ***
  0  -5304.6412437949   0.000000000000 0.11359069  0.00211480  0.1565747 0.7000
  1  -5304.7159322769  -0.074688482023 0.08596513  0.00159267  0.0842803 0.7000
                               ***Turning on DIIS***
  2  -5304.7495619919  -0.033629715062 0.16779089  0.00302451  0.0414978 0.0000
  3  -5304.7984600426  -0.048898050665 0.03851036  0.00095581  0.0438785 0.0000
  4  -5304.8102996582  -0.011839615594 0.01897198  0.00030454  0.0086970 0.0000
                      *** Initiating the SOSCF procedure ***
                           *** Shutting down DIIS ***
                      *** Re-Reading the Fockian *** 
                      *** Removing any level shift *** 
ITER      Energy       Delta-E        Grad      Rot      Max-DP    RMS-DP
  5  -5304.81080674  -0.0005070795  0.000607  0.000607  0.001836  0.000083
               *** Restarting incremental Fock matrix formation ***
  6  -5304.81082374  -0.0000169981  0.000280  0.000602  0.001216  0.000052
  7  -5304.81082476  -0.0000010259  0.000260  0.000167  0.000748  0.000014
  8  -5304.81082709  -0.0000023280  0.000024  0.000039  0.000162  0.000003
  9  -5304.81082685   0.0000002358  0.000016  0.000017  0.000060  0.000001
                 **** Energy Check signals convergence ****
              ***Rediagonalizing the Fockian in SOSCF/NRSCF***

               *****************************************************
               *                     SUCCESS                       *
               *           SCF CONVERGED AFTER  10 CYCLES          *
               *****************************************************

Setting up the final grid:

General Integration Accuracy     IntAcc      ...  4.670
Radial Grid Type                 RadialGrid  ... Gauss-Chebyshev
Angular Grid (max. acc.)         AngularGrid ... Lebedev-302
Angular grid pruning method      GridPruning ... 3 (G Style)
Weight generation scheme         WeightScheme... Becke
Basis function cutoff            BFCut       ...    1.0000e-10
Integration weight cutoff        WCut        ...    1.0000e-14
Grids for H and He will be reduced by one unit

# of grid points (after initial pruning)     ...  74626 (   0.0 sec)
# of grid points (after weights+screening)   ...  69179 (   0.1 sec)
nearest neighbour list constructed           ...    0.0 sec
Grid point re-assignment to atoms done       ...    0.0 sec
Grid point division into batches done        ...    0.3 sec
Reduced shell lists constructed in    0.4 sec

Total number of grid points                  ...    69179
Total number of batches                      ...     1088
Average number of points per batch           ...       63
Average number of grid points per atom       ...     4612
Average number of shells per batch           ...    51.05 (68.07%)
Average number of basis functions per batch  ...   106.59 (64.60%)
Average number of large shells per batch     ...    40.85 (80.01%)
Average number of large basis fcns per batch ...    82.49 (77.39%)
Maximum spatial batch extension              ...  16.89, 13.98, 17.82 au
Average spatial batch extension              ...   0.46,  0.45,  0.47 au

Final grid set up in    0.5 sec
Final integration                            ... done (   0.2 sec)
Change in XC energy                          ...     0.000163548
Integrated number of electrons               ...   104.000023375
Previous integrated no of electrons          ...   104.001962874
Old exchange energy                            =    -50.835108629 Eh
New exchange energy                            =    -50.835073813 Eh
Exchange energy change after final integration =      0.000034816 Eh
Total energy after final integration           =  -5304.810628618 Eh
Final COS-X integration done in                =     1.313 sec

----------------
TOTAL SCF ENERGY
----------------

Total Energy       :        -5304.81062862 Eh         -144351.23588 eV

Components:
Nuclear Repulsion  :          556.95077228 Eh           15155.40100 eV
Electronic Energy  :        -5861.76140090 Eh         -159506.63688 eV
One Electron Energy:        -8504.54740469 Eh         -231420.50007 eV
Two Electron Energy:         2642.78600379 Eh           71913.86319 eV
CPCM Dielectric    :           -0.10623332 Eh              -2.89076 eV

Virial components:
Potential Energy   :       -10602.60464521 Eh         -288511.54004 eV
Kinetic Energy     :         5297.79401659 Eh          144160.30416 eV
Virial Ratio       :            2.00132444


DFT components:
N(Alpha)           :       52.000011687470 electrons
N(Beta)            :       52.000011687470 electrons
N(Total)           :      104.000023374941 electrons
E(X)               :     -151.832803684347 Eh       
E(C)               :       -4.536261821992 Eh       
E(XC)              :     -156.369065506339 Eh       
DFET-embed. en.    :        0.000000000000 Eh       
CPCM Solvation Model Properties:
Surface-charge          :            0.97327121
Charge-correction       :           -0.00344283 Eh              -0.09368 eV
Free-energy (cav+disp)  :            0.00412042 Eh               0.11212 eV
Corrected G(solv)       :        -5304.80995102 Eh         -144351.21744 eV

---------------
SCF CONVERGENCE
---------------

  Last Energy change         ...   -1.2842e-07  Tolerance :   1.0000e-06
  Last MAX-Density change    ...    3.9968e-15  Tolerance :   1.0000e-05
  Last RMS-Density change    ...    7.8816e-17  Tolerance :   1.0000e-06
  Last Orbital Gradient      ...    3.3474e-06  Tolerance :   5.0000e-05
  Last Orbital Rotation      ...    5.6978e-06  Tolerance :   5.0000e-05

             **** THE GBW FILE WAS UPDATED (manual_reactants_330_freq.gbw) ****
             **** DENSITY FILE WAS UPDATED (manual_reactants_330_freq.scfp) ****
             **** ENERGY FILE WAS UPDATED (manual_reactants_330_freq.en.tmp) ****
             **** THE GBW FILE WAS UPDATED (manual_reactants_330_freq.gbw) ****
             **** DENSITY FILE WAS UPDATED (manual_reactants_330_freq.scfp) ****
----------------
ORBITAL ENERGIES
----------------

  NO   OCC          E(Eh)            E(eV) 
   0   2.0000    -483.174167    -13147.8375 
   1   2.0000    -483.064986    -13144.8665 
   2   2.0000     -62.610224     -1703.7108 
   3   2.0000     -62.500107     -1700.7144 
   4   2.0000     -56.399370     -1534.7049 
   5   2.0000     -56.397141     -1534.6442 
   6   2.0000     -56.397068     -1534.6423 
   7   2.0000     -56.288147     -1531.6783 
   8   2.0000     -56.288025     -1531.6750 
   9   2.0000     -56.287628     -1531.6642 
  10   2.0000     -10.276028      -279.6249 
  11   2.0000     -10.237422      -278.5744 
  12   2.0000     -10.212797      -277.9043 
  13   2.0000     -10.210390      -277.8388 
  14   2.0000      -8.755465      -238.2483 
  15   2.0000      -8.643563      -235.2033 
  16   2.0000      -6.569644      -178.7691 
  17   2.0000      -6.557746      -178.4453 
  18   2.0000      -6.557542      -178.4398 
  19   2.0000      -6.449935      -175.5117 
  20   2.0000      -6.449901      -175.5107 
  21   2.0000      -6.449768      -175.5071 
  22   2.0000      -2.655181       -72.2512 
  23   2.0000      -2.651974       -72.1639 
  24   2.0000      -2.651750       -72.1578 
  25   2.0000      -2.642157       -71.8967 
  26   2.0000      -2.642150       -71.8966 
  27   2.0000      -2.536807       -69.0300 
  28   2.0000      -2.536779       -69.0293 
  29   2.0000      -2.536723       -69.0278 
  30   2.0000      -2.536692       -69.0269 
  31   2.0000      -2.536650       -69.0258 
  32   2.0000      -0.842688       -22.9307 
  33   2.0000      -0.777654       -21.1610 
  34   2.0000      -0.685961       -18.6659 
  35   2.0000      -0.674803       -18.3623 
  36   2.0000      -0.652579       -17.7576 
  37   2.0000      -0.558382       -15.1943 
  38   2.0000      -0.477258       -12.9868 
  39   2.0000      -0.462213       -12.5775 
  40   2.0000      -0.442199       -12.0328 
  41   2.0000      -0.388466       -10.5707 
  42   2.0000      -0.386487       -10.5168 
  43   2.0000      -0.373127       -10.1533 
  44   2.0000      -0.351935        -9.5766 
  45   2.0000      -0.340545        -9.2667 
  46   2.0000      -0.324258        -8.8235 
  47   2.0000      -0.284078        -7.7302 
  48   2.0000      -0.281994        -7.6735 
  49   2.0000      -0.216143        -5.8815 
  50   2.0000      -0.216034        -5.8786 
  51   2.0000      -0.213775        -5.8171 
  52   0.0000       0.022918         0.6236 
  53   0.0000       0.075860         2.0643 
  54   0.0000       0.121689         3.3113 
  55   0.0000       0.123630         3.3641 
  56   0.0000       0.139056         3.7839 
  57   0.0000       0.144460         3.9310 
  58   0.0000       0.153112         4.1664 
  59   0.0000       0.168665         4.5896 
  60   0.0000       0.185782         5.0554 
  61   0.0000       0.206884         5.6296 
  62   0.0000       0.210554         5.7295 
  63   0.0000       0.253812         6.9066 
  64   0.0000       0.261473         7.1150 
  65   0.0000       0.355743         9.6803 
  66   0.0000       0.394668        10.7395 
  67   0.0000       0.397550        10.8179 
  68   0.0000       0.421871        11.4797 
  69   0.0000       0.439688        11.9645 
  70   0.0000       0.453295        12.3348 
  71   0.0000       0.475806        12.9473 
  72   0.0000       0.496334        13.5059 
  73   0.0000       0.500550        13.6207 
  74   0.0000       0.554937        15.1006 
  75   0.0000       0.572175        15.5697 
  76   0.0000       0.583939        15.8898 
  77   0.0000       0.605382        16.4733 
  78   0.0000       0.607826        16.5398 
  79   0.0000       0.621948        16.9241 
  80   0.0000       0.628017        17.0892 
  81   0.0000       0.631941        17.1960 
  82   0.0000       0.633484        17.2380 
  83   0.0000       0.634093        17.2546 
  84   0.0000       0.635261        17.2863 
  85   0.0000       0.641600        17.4588 
  86   0.0000       0.663391        18.0518 
  87   0.0000       0.669865        18.2279 
  88   0.0000       0.672255        18.2930 
  89   0.0000       0.679516        18.4906 
  90   0.0000       0.693182        18.8624 
  91   0.0000       0.702159        19.1067 
  92   0.0000       0.704000        19.1568 
  93   0.0000       0.714212        19.4347 
  94   0.0000       0.718913        19.5626 
  95   0.0000       0.732676        19.9371 
  96   0.0000       0.745925        20.2977 
  97   0.0000       0.754958        20.5434 
  98   0.0000       0.771686        20.9986 
  99   0.0000       0.774501        21.0752 
 100   0.0000       0.834933        22.7197 
 101   0.0000       0.848881        23.0992 
 102   0.0000       0.935733        25.4626 
 103   0.0000       0.965144        26.2629 
 104   0.0000       1.031357        28.0647 
 105   0.0000       1.077693        29.3255 
 106   0.0000       1.100103        29.9353 
 107   0.0000       1.119468        30.4623 
 108   0.0000       1.181422        32.1481 
 109   0.0000       1.193995        32.4903 
 110   0.0000       1.282431        34.8967 
 111   0.0000       1.352919        36.8148 
 112   0.0000       1.449041        39.4304 
 113   0.0000       1.559445        42.4347 
 114   0.0000       1.565413        42.5971 
 115   0.0000       1.585260        43.1371 
 116   0.0000       1.595067        43.4040 
 117   0.0000       1.672082        45.4997 
 118   0.0000       1.746134        47.5147 
 119   0.0000       1.770690        48.1829 
 120   0.0000       1.778673        48.4002 
 121   0.0000       1.808579        49.2139 
 122   0.0000       1.822171        49.5838 
 123   0.0000       1.828968        49.7687 
 124   0.0000       1.856805        50.5262 
 125   0.0000       1.864381        50.7324 
 126   0.0000       1.877978        51.1024 
 127   0.0000       1.888597        51.3913 
 128   0.0000       1.939270        52.7702 
 129   0.0000       1.956687        53.2442 
 130   0.0000       1.977139        53.8007 
 131   0.0000       1.987360        54.0788 
 132   0.0000       2.063792        56.1586 
 133   0.0000       2.088093        56.8199 
 134   0.0000       2.143520        58.3282 
 135   0.0000       2.282219        62.1023 
 136   0.0000       2.285895        62.2024 
 137   0.0000       2.303660        62.6858 
 138   0.0000       2.368513        64.4505 
 139   0.0000       2.411741        65.6268 
 140   0.0000       2.443054        66.4789 
 141   0.0000       2.490255        67.7633 
 142   0.0000       2.591354        70.5143 
 143   0.0000       2.602747        70.8244 
 144   0.0000       2.650831        72.1328 
 145   0.0000       2.672043        72.7100 
 146   0.0000       2.751642        74.8760 
 147   0.0000       2.879104        78.3444 
 148   0.0000       2.897541        78.8461 
 149   0.0000       2.928770        79.6959 
 150   0.0000       2.958346        80.5007 
 151   0.0000       2.967543        80.7510 
 152   0.0000       3.057140        83.1890 
 153   0.0000       3.086005        83.9745 
 154   0.0000       3.096395        84.2572 
 155   0.0000       3.491764        95.0157 
 156   0.0000       3.498915        95.2103 
 157   0.0000       3.561262        96.9069 
 158   0.0000       3.561293        96.9077 
 159   0.0000       3.561638        96.9171 
 160   0.0000       3.576497        97.3214 
 161   0.0000       3.592014        97.7437 
 162   0.0000       3.594367        97.8077 
 163   0.0000       3.598851        97.9297 
 164   0.0000       3.820698       103.9665 

                    ********************************
                    * MULLIKEN POPULATION ANALYSIS *
                    ********************************

-----------------------
MULLIKEN ATOMIC CHARGES
-----------------------
   0 C :   -0.043841
   1 C :   -0.193562
   2 C :   -0.052318
   3 C :   -0.068740
   4 Br:   -0.209815
   5 H :    0.034909
   6 H :    0.035565
   7 H :    0.040591
   8 H :    0.063224
   9 H :    0.045124
  10 H :    0.036462
  11 H :    0.038707
  12 H :    0.106450
  13 H :    0.106065
  14 Br:   -0.938821
Sum of atomic charges:   -1.0000000

--------------------------------
MULLIKEN REDUCED ORBITAL CHARGES
--------------------------------
  0 C s       :     3.028584  s :     3.028584
      pz      :     1.017488  p :     2.988390
      px      :     0.972073
      py      :     0.998830
      dz2     :     0.002974  d :     0.026867
      dxz     :     0.007828
      dyz     :     0.005378
      dx2y2   :     0.004516
      dxy     :     0.006172
  1 C s       :     3.134955  s :     3.134955
      pz      :     0.973670  p :     3.012696
      px      :     1.014699
      py      :     1.024328
      dz2     :     0.009159  d :     0.045911
      dxz     :     0.011935
      dyz     :     0.008625
      dx2y2   :     0.006677
      dxy     :     0.009516
  2 C s       :     3.036987  s :     3.036987
      pz      :     0.995166  p :     2.988388
      px      :     0.979971
      py      :     1.013251
      dz2     :     0.003932  d :     0.026942
      dxz     :     0.007278
      dyz     :     0.005676
      dx2y2   :     0.002279
      dxy     :     0.007779
  3 C s       :     3.138994  s :     3.138994
      pz      :     1.047769  p :     2.893911
      px      :     1.007447
      py      :     0.838696
      dz2     :     0.006610  d :     0.035835
      dxz     :     0.009379
      dyz     :     0.005927
      dx2y2   :     0.004962
      dxy     :     0.008957
  4 Brs       :     7.972475  s :     7.972475
      pz      :     5.961835  p :    17.194971
      px      :     5.829077
      py      :     5.404059
      dz2     :     2.006262  d :    10.042369
      dxz     :     2.002560
      dyz     :     2.006228
      dx2y2   :     2.012172
      dxy     :     2.015146
  5 H s       :     0.940161  s :     0.940161
      pz      :     0.011734  p :     0.024930
      px      :     0.006310
      py      :     0.006886
  6 H s       :     0.940364  s :     0.940364
      pz      :     0.005993  p :     0.024071
      px      :     0.006222
      py      :     0.011856
  7 H s       :     0.935793  s :     0.935793
      pz      :     0.009000  p :     0.023616
      px      :     0.009352
      py      :     0.005264
  8 H s       :     0.914793  s :     0.914793
      pz      :     0.004552  p :     0.021982
      px      :     0.005985
      py      :     0.011446
  9 H s       :     0.931250  s :     0.931250
      pz      :     0.005892  p :     0.023627
      px      :     0.009065
      py      :     0.008670
 10 H s       :     0.939445  s :     0.939445
      pz      :     0.005727  p :     0.024093
      px      :     0.006748
      py      :     0.011619
 11 H s       :     0.937118  s :     0.937118
      pz      :     0.010836  p :     0.024175
      px      :     0.006335
      py      :     0.007004
 12 H s       :     0.870858  s :     0.870858
      pz      :     0.005403  p :     0.022692
      px      :     0.009643
      py      :     0.007646
 13 H s       :     0.871211  s :     0.871211
      pz      :     0.009177  p :     0.022724
      px      :     0.009976
      py      :     0.003571
 14 Brs       :     7.998046  s :     7.998046
      pz      :     5.968324  p :    17.940585
      px      :     5.983547
      py      :     5.988714
      dz2     :     2.000044  d :    10.000190
      dxz     :     2.000039
      dyz     :     2.000082
      dx2y2   :     2.000018
      dxy     :     2.000006


                     *******************************
                     * LOEWDIN POPULATION ANALYSIS *
                     *******************************

----------------------
LOEWDIN ATOMIC CHARGES
----------------------
   0 C :   -0.073840
   1 C :   -0.069047
   2 C :   -0.071687
   3 C :   -0.070740
   4 Br:   -0.036335
   5 H :    0.019301
   6 H :    0.021266
   7 H :    0.028122
   8 H :    0.047031
   9 H :    0.029077
  10 H :    0.023236
  11 H :    0.024496
  12 H :    0.039948
  13 H :    0.039912
  14 Br:   -0.950738

-------------------------------
LOEWDIN REDUCED ORBITAL CHARGES
-------------------------------
  0 C s       :     2.845637  s :     2.845637
      pz      :     1.065196  p :     3.158033
      px      :     1.039749
      py      :     1.053088
      dz2     :     0.007500  d :     0.070170
      dxz     :     0.021147
      dyz     :     0.013866
      dx2y2   :     0.010460
      dxy     :     0.017196
  1 C s       :     2.844622  s :     2.844622
      pz      :     1.024274  p :     3.115862
      px      :     1.041527
      py      :     1.050062
      dz2     :     0.020686  d :     0.108563
      dxz     :     0.030233
      dyz     :     0.020448
      dx2y2   :     0.013793
      dxy     :     0.023403
  2 C s       :     2.846104  s :     2.846104
      pz      :     1.048635  p :     3.155466
      px      :     1.039741
      py      :     1.067091
      dz2     :     0.009689  d :     0.070116
      dxz     :     0.020101
      dyz     :     0.014600
      dx2y2   :     0.005740
      dxy     :     0.019986
  3 C s       :     2.916109  s :     2.916109
      pz      :     1.082199  p :     3.070287
      px      :     1.058585
      py      :     0.929503
      dz2     :     0.015596  d :     0.084344
      dxz     :     0.023418
      dyz     :     0.013522
      dx2y2   :     0.010973
      dxy     :     0.020835
  4 Brs       :     7.828310  s :     7.828310
      pz      :     5.941348  p :    17.154856
      px      :     5.813064
      py      :     5.400444
      dz2     :     2.008633  d :    10.053169
      dxz     :     2.002921
      dyz     :     2.007673
      dx2y2   :     2.014516
      dxy     :     2.019427
  5 H s       :     0.910609  s :     0.910609
      pz      :     0.032831  p :     0.070091
      px      :     0.017990
      py      :     0.019270
  6 H s       :     0.911304  s :     0.911304
      pz      :     0.016121  p :     0.067431
      px      :     0.017688
      py      :     0.033622
  7 H s       :     0.905607  s :     0.905607
      pz      :     0.024944  p :     0.066271
      px      :     0.026956
      py      :     0.014370
  8 H s       :     0.885624  s :     0.885624
      pz      :     0.014858  p :     0.067345
      px      :     0.019086
      py      :     0.033401
  9 H s       :     0.904745  s :     0.904745
      pz      :     0.016731  p :     0.066179
      px      :     0.026126
      py      :     0.023322
 10 H s       :     0.909606  s :     0.909606
      pz      :     0.016303  p :     0.067158
      px      :     0.018883
      py      :     0.031973
 11 H s       :     0.907403  s :     0.907403
      pz      :     0.031766  p :     0.068101
      px      :     0.017887
      py      :     0.018448
 12 H s       :     0.888925  s :     0.888925
      pz      :     0.017960  p :     0.071127
      px      :     0.028338
      py      :     0.024829
 13 H s       :     0.888876  s :     0.888876
      pz      :     0.029359  p :     0.071213
      px      :     0.030041
      py      :     0.011813
 14 Brs       :     7.997982  s :     7.997982
      pz      :     5.973751  p :    17.952541
      px      :     5.987765
      py      :     5.991026
      dz2     :     2.000049  d :    10.000215
      dxz     :     2.000047
      dyz     :     2.000094
      dx2y2   :     2.000020
      dxy     :     2.000006


                      *****************************
                      * MAYER POPULATION ANALYSIS *
                      *****************************

  NA   - Mulliken gross atomic population
  ZA   - Total nuclear charge
  QA   - Mulliken gross atomic charge
  VA   - Mayer's total valence
  BVA  - Mayer's bonded valence
  FA   - Mayer's free valence

  ATOM       NA         ZA         QA         VA         BVA        FA
  0 C      6.0438     6.0000    -0.0438     3.9013     3.9013    -0.0000
  1 C      6.1936     6.0000    -0.1936     4.1274     4.1274     0.0000
  2 C      6.0523     6.0000    -0.0523     3.9172     3.9172     0.0000
  3 C      6.0687     6.0000    -0.0687     3.8815     3.8815    -0.0000
  4 Br    35.2098    35.0000    -0.2098     1.0368     1.0368    -0.0000
  5 H      0.9651     1.0000     0.0349     1.0490     1.0490    -0.0000
  6 H      0.9644     1.0000     0.0356     1.0048     1.0048     0.0000
  7 H      0.9594     1.0000     0.0406     0.9864     0.9864     0.0000
  8 H      0.9368     1.0000     0.0632     0.9638     0.9638     0.0000
  9 H      0.9549     1.0000     0.0451     0.9855     0.9855     0.0000
 10 H      0.9635     1.0000     0.0365     1.0040     1.0040     0.0000
 11 H      0.9613     1.0000     0.0387     1.0290     1.0290     0.0000
 12 H      0.8935     1.0000     0.1065     0.9694     0.9694    -0.0000
 13 H      0.8939     1.0000     0.1061     0.9691     0.9691     0.0000
 14 Br    35.9388    35.0000    -0.9388     0.1238     0.1238     0.0000

  Mayer bond orders larger than 0.100000
B(  0-C ,  1-C ) :   1.0566 B(  0-C ,  5-H ) :   0.9535 B(  0-C ,  6-H ) :   0.9613 
B(  0-C ,  7-H ) :   0.9667 B(  1-C ,  2-C ) :   1.0577 B(  1-C ,  3-C ) :   1.0441 
B(  1-C ,  8-H ) :   0.9096 B(  2-C ,  9-H ) :   0.9686 B(  2-C , 10-H ) :   0.9640 
B(  2-C , 11-H ) :   0.9594 B(  3-C ,  4-Br) :   0.9648 B(  3-C , 12-H ) :   0.9478 
B(  3-C , 13-H ) :   0.9464 


------------------
HIRSHFELD ANALYSIS
------------------

Total integrated alpha density =     52.000981438
Total integrated beta density  =     52.000981438

  ATOM     CHARGE      SPIN    
   0 C   -0.084759    0.000000
   1 C   -0.001831    0.000000
   2 C   -0.081963    0.000000
   3 C    0.010417    0.000000
   4 Br  -0.150613    0.000000
   5 H    0.008706    0.000000
   6 H    0.015099    0.000000
   7 H    0.025155    0.000000
   8 H    0.037806    0.000000
   9 H    0.025542    0.000000
  10 H    0.017312    0.000000
  11 H    0.016129    0.000000
  12 H    0.045573    0.000000
  13 H    0.045546    0.000000
  14 Br  -0.930083    0.000000

  TOTAL  -1.001963    0.000000

-------
TIMINGS
-------

Total SCF time: 0 days 0 hours 0 min 12 sec 

Total time                  ....      12.843 sec
Sum of individual times     ....      12.375 sec  ( 96.4%)

Fock matrix formation       ....      11.435 sec  ( 89.0%)
  Split-RI-J                ....       1.569 sec  ( 13.7% of F)
  Chain of spheres X        ....       6.688 sec  ( 58.5% of F)
  COS-X 1 center corr.      ....       0.000 sec  (  0.0% of F)
  XC integration            ....       0.639 sec  (  5.6% of F)
    Basis function eval.    ....       0.255 sec  ( 39.8% of XC)
    Density eval.           ....       0.120 sec  ( 18.8% of XC)
    XC-Functional eval.     ....       0.055 sec  (  8.6% of XC)
    XC-Potential eval.      ....       0.169 sec  ( 26.4% of XC)
Diagonalization             ....       0.020 sec  (  0.2%)
Density matrix formation    ....       0.004 sec  (  0.0%)
Population analysis         ....       0.049 sec  (  0.4%)
Initial guess               ....       0.140 sec  (  1.1%)
Orbital Transformation      ....       0.000 sec  (  0.0%)
Orbital Orthonormalization  ....       0.000 sec  (  0.0%)
DIIS solution               ....       0.006 sec  (  0.0%)
SOSCF solution              ....       0.010 sec  (  0.1%)
Grid generation             ....       0.711 sec  (  5.5%)


-------------------------------------------------------------------------------
                          DFT DISPERSION CORRECTION                            
                                                                               
                              DFTD3 V3.1  Rev 1                                
                          USING Becke-Johnson damping                          
-------------------------------------------------------------------------------
The PBE0 functional is recognized
Active option DFTDOPT                   ...         4   

molecular C6(AA) [au] = 3451.692975 


            DFT-D V3
 parameters
 s6 scaling factor         :     1.0000 
 a1 scaling factor         :     0.4145 
 s8 scaling factor         :     1.2177 
 a2 scaling factor         :     4.8593 
 ad hoc parameters k1-k3   :    16.0000     1.3333    -4.0000 

 Edisp/kcal,au: -7.488489534955  -0.011933666416 
 E6   /kcal   :  -4.613660501 
 E8   /kcal   :  -2.874829034 
 % E8         :  38.389971983 

-------------------------   ----------------
Dispersion correction           -0.011933666
-------------------------   ----------------


-------------------------   --------------------
FINAL SINGLE POINT ENERGY     -5304.822562284047
-------------------------   --------------------


                            ***************************************
                            *     ORCA property calculations      *
                            ***************************************

                                    ---------------------
                                    Active property flags
                                    ---------------------
   (+) Dipole Moment


------------------------------------------------------------------------------
                       ORCA ELECTRIC PROPERTIES CALCULATION
------------------------------------------------------------------------------

Dipole Moment Calculation                       ... on
Quadrupole Moment Calculation                   ... off
Polarizability Calculation                      ... off
GBWName                                         ... manual_reactants_330_freq.gbw
Electron density file                           ... manual_reactants_330_freq.scfp
The origin for moment calculation is the CENTER OF MASS  = ( 0.939330,  0.882117  1.460992)

-------------
DIPOLE MOMENT
-------------
                                X             Y             Z
Electronic contribution:      0.95714      -5.54449       8.71808
Nuclear contribution   :     -3.69209       3.46654     -14.02604
                        -----------------------------------------
Total Dipole Moment    :     -2.73496      -2.07795      -5.30796
                        -----------------------------------------
Magnitude (a.u.)       :      6.32236
Magnitude (Debye)      :     16.07017



--------------------
Rotational spectrum 
--------------------
 
Rotational constants in cm-1:     0.147561     0.007723     0.007677 
Rotational constants in MHz :  4423.754054   231.528430   230.138064 

 Dipole components along the rotational axes: 
x,y,z [a.u.] :    -6.230483     0.829837    -0.681722 
x,y,z [Debye]:   -15.836630     2.109278    -1.732801 

 
[1631286063.848371] [comp0802:208760:0]            sys.c:618  UCX  ERROR shmget(size=2097152 flags=0xfb0) for mm_recv_desc failed: Operation not permitted, please check shared memory limits by 'ipcs -l'
[1631286063.857740] [comp0802:208762:0]            sys.c:618  UCX  ERROR shmget(size=2097152 flags=0xfb0) for mm_recv_desc failed: Operation not permitted, please check shared memory limits by 'ipcs -l'
[1631286063.858776] [comp0802:208763:0]            sys.c:618  UCX  ERROR shmget(size=2097152 flags=0xfb0) for mm_recv_desc failed: Operation not permitted, please check shared memory limits by 'ipcs -l'
[1631286063.862496] [comp0802:208761:0]            sys.c:618  UCX  ERROR shmget(size=2097152 flags=0xfb0) for mm_recv_desc failed: Operation not permitted, please check shared memory limits by 'ipcs -l'
[1631286063.877223] [comp0802:208760:0]            sys.c:618  UCX  ERROR shmget(size=2097152 flags=0xb80) for ucp_am_bufs failed: Operation not permitted, please check shared memory limits by 'ipcs -l'
[1631286063.878001] [comp0802:208761:0]            sys.c:618  UCX  ERROR shmget(size=2097152 flags=0xb80) for ucp_am_bufs failed: Operation not permitted, please check shared memory limits by 'ipcs -l'


           ************************************************************
           *        Program running with 4 parallel MPI-processes     *
           *              working on a common directory               *
           ************************************************************
[1631286063.898954] [comp0802:208762:0]            sys.c:618  UCX  ERROR shmget(size=2097152 flags=0xb80) for ucp_am_bufs failed: Operation not permitted, please check shared memory limits by 'ipcs -l'

-------------------------------------------------------------------------------
                               ORCA SCF HESSIAN
-------------------------------------------------------------------------------

Hessian of the Kohn-Sham DFT energy:
Kohn-Sham wavefunction type                      ... RKS
Hartree-Fock exchange scaling                    ...    0.250
Number of operators                              ...    1
Number of atoms                                  ...   15
Basis set dimensions                             ...  165
Integral neglect threshold                       ... 1.0e-10
Integral primitive cutoff                        ... 1.0e-11

Setting up DFT Hessian calculations              ... 
Electron density on the grid                     ... found on disk
Electron density on the final grid               ... found on disk
Building xc-kernel on the grid                   ... done   (      0.0 sec)
Building xc-kernel on the final grid             ... done   (      0.0 sec)
[1631286063.959506] [comp0802:208763:0]            sys.c:618  UCX  ERROR shmget(size=2097152 flags=0xb80) for ucp_am_bufs failed: Operation not permitted, please check shared memory limits by 'ipcs -l'
                                                     done   (      0.1 sec)

Nuclear repulsion Hessian                        ... done   (      0.0 sec)

----------------------------------------------
Forming right-hand sides of CP-SCF equations     ...
----------------------------------------------
One electron integral derivatives                ... done   (      7.7 sec)
Transforming the overlap derivative matrices     ... done   (      0.0 sec)
[1631286073.161093] [comp0802:208763:0]            sys.c:618  UCX  ERROR shmget(size=6291456 flags=0xfb0) for mm_recv_desc failed: Operation not permitted, please check shared memory limits by 'ipcs -l'
[1631286073.163508] [comp0802:208760:0]            sys.c:618  UCX  ERROR shmget(size=6291456 flags=0xfb0) for mm_recv_desc failed: Operation not permitted, please check shared memory limits by 'ipcs -l'
Adding tr(S(x)F(y) C-PCM term to the hessian     ... done   (      1.1 sec)
Making the Q(x) pseudodensities                  ... done   (      0.0 sec)
Adding the E*S(x)*S(y) terms to the Hessian      ... done   (      0.0 sec)
Calculating energy weighted overlap derivatives  ... done   (      0.0 sec)
Two electron integral derivatives (RI)           ... done   (      3.3 sec)
Exchange-correlation integral derivatives        ... done   (      6.9 sec)
tr(F(y)Q(x)) contribution to the Hessian         ... done   (      0.0 sec)
Response fock operator R(S(x)) (RIJCOSX)         ... done   (      5.0 sec)
XC Response fock operator R(S(x))                ... done   (      2.6 sec)
tr(F(y)S(x)) contribution to the Hessian         ... done   (      0.0 sec)
Transforming and finalizing RHSs                 ... done   (      0.0 sec)

----------------------------------------------
Solving the CP-SCF equations (RIJCOSX)           ...
----------------------------------------------
     CP-SCF ITERATION   0: 
     CP-SCF ITERATION   1:      0.000493908226
     CP-SCF ITERATION   2:      0.000045158875
     CP-SCF ITERATION   3:      0.000004529093
     CP-SCF ITERATION   4:      0.000000986989

                                                 ... done   (     20.8 sec)
Forming perturbed density Hessian contributions  ... done   (      0.0 sec)
Calculating [Q*(d^2 A/dXdY)*Q  ] C-PCM term      ... done   (      0.0 sec)
Calculating [d^2(V_N)/(dXdY)*Q ] C-PCM term      ... done   (      0.0 sec)
Calculating [d^2(V_el)/(dXdY)*Q] C-PCM term      ... done   (      0.6 sec)
Calculating C-PCM term that depends on dQ/dX     ... done   (      0.0 sec)
2nd integral derivative contribs (RI)            ... done   (     15.9 sec)
Exchange-correlation Hessian                     ... done   (      7.4 sec)
Dispersion correction in the Hessian             ... done   (      0.8 sec)
Dipol derivatives                                ... done   (      0.4 sec)

Total SCF Hessian time: 0 days 0 hours 1 min 15 sec 

Writing the Hessian file to the disk             ... done


Maximum memory used throughout the entire calculation: 153.8 MB

-----------------------
VIBRATIONAL FREQUENCIES
-----------------------

Scaling factor for frequencies =  1.000000000  (already applied!)

   0:         0.00 cm**-1
   1:         0.00 cm**-1
   2:         0.00 cm**-1
   3:         0.00 cm**-1
   4:         0.00 cm**-1
   5:         0.00 cm**-1
   6:       -11.42 cm**-1 ***imaginary mode***
   7:        20.89 cm**-1
   8:        34.45 cm**-1
   9:       109.99 cm**-1
  10:       176.21 cm**-1
  11:       248.35 cm**-1
  12:       267.41 cm**-1
  13:       363.63 cm**-1
  14:       373.57 cm**-1
  15:       475.91 cm**-1
  16:       625.24 cm**-1
  17:       819.36 cm**-1
  18:       854.40 cm**-1
  19:       926.54 cm**-1
  20:       979.00 cm**-1
  21:       991.80 cm**-1
  22:      1072.68 cm**-1
  23:      1083.36 cm**-1
  24:      1206.22 cm**-1
  25:      1211.06 cm**-1
  26:      1254.90 cm**-1
  27:      1332.78 cm**-1
  28:      1335.35 cm**-1
  29:      1385.47 cm**-1
  30:      1392.47 cm**-1
  31:      1429.32 cm**-1
  32:      1441.15 cm**-1
  33:      1456.20 cm**-1
  34:      1465.55 cm**-1
  35:      1468.21 cm**-1
  36:      3026.38 cm**-1
  37:      3039.91 cm**-1
  38:      3043.95 cm**-1
  39:      3118.90 cm**-1
  40:      3137.16 cm**-1
  41:      3139.17 cm**-1
  42:      3145.38 cm**-1
  43:      3147.08 cm**-1
  44:      3199.09 cm**-1


------------
NORMAL MODES
------------

These modes are the Cartesian displacements weighted by the diagonal matrix
M(i,i)=1/sqrt(m[i]) where m[i] is the mass of the displaced atom
Thus, these vectors are normalized but *not* orthogonal

                  0          1          2          3          4          5    
      0       0.000000   0.000000   0.000000   0.000000   0.000000   0.000000
      1       0.000000   0.000000   0.000000   0.000000   0.000000   0.000000
      2       0.000000   0.000000   0.000000   0.000000   0.000000   0.000000
      3       0.000000   0.000000   0.000000   0.000000   0.000000   0.000000
      4       0.000000   0.000000   0.000000   0.000000   0.000000   0.000000
      5       0.000000   0.000000   0.000000   0.000000   0.000000   0.000000
      6       0.000000   0.000000   0.000000   0.000000   0.000000   0.000000
      7       0.000000   0.000000   0.000000   0.000000   0.000000   0.000000
      8       0.000000   0.000000   0.000000   0.000000   0.000000   0.000000
      9       0.000000   0.000000   0.000000   0.000000   0.000000   0.000000
     10       0.000000   0.000000   0.000000   0.000000   0.000000   0.000000
     11       0.000000   0.000000   0.000000   0.000000   0.000000   0.000000
     12       0.000000   0.000000   0.000000   0.000000   0.000000   0.000000
     13       0.000000   0.000000   0.000000   0.000000   0.000000   0.000000
     14       0.000000   0.000000   0.000000   0.000000   0.000000   0.000000
     15       0.000000   0.000000   0.000000   0.000000   0.000000   0.000000
     16       0.000000   0.000000   0.000000   0.000000   0.000000   0.000000
     17       0.000000   0.000000   0.000000   0.000000   0.000000   0.000000
     18       0.000000   0.000000   0.000000   0.000000   0.000000   0.000000
     19       0.000000   0.000000   0.000000   0.000000   0.000000   0.000000
     20       0.000000   0.000000   0.000000   0.000000   0.000000   0.000000
     21       0.000000   0.000000   0.000000   0.000000   0.000000   0.000000
     22       0.000000   0.000000   0.000000   0.000000   0.000000   0.000000
     23       0.000000   0.000000   0.000000   0.000000   0.000000   0.000000
     24       0.000000   0.000000   0.000000   0.000000   0.000000   0.000000
     25       0.000000   0.000000   0.000000   0.000000   0.000000   0.000000
     26       0.000000   0.000000   0.000000   0.000000   0.000000   0.000000
     27       0.000000   0.000000   0.000000   0.000000   0.000000   0.000000
     28       0.000000   0.000000   0.000000   0.000000   0.000000   0.000000
     29       0.000000   0.000000   0.000000   0.000000   0.000000   0.000000
     30       0.000000   0.000000   0.000000   0.000000   0.000000   0.000000
     31       0.000000   0.000000   0.000000   0.000000   0.000000   0.000000
     32       0.000000   0.000000   0.000000   0.000000   0.000000   0.000000
     33       0.000000   0.000000   0.000000   0.000000   0.000000   0.000000
     34       0.000000   0.000000   0.000000   0.000000   0.000000   0.000000
     35       0.000000   0.000000   0.000000   0.000000   0.000000   0.000000
     36       0.000000   0.000000   0.000000   0.000000   0.000000   0.000000
     37       0.000000   0.000000   0.000000   0.000000   0.000000   0.000000
     38       0.000000   0.000000   0.000000   0.000000   0.000000   0.000000
     39       0.000000   0.000000   0.000000   0.000000   0.000000   0.000000
     40       0.000000   0.000000   0.000000   0.000000   0.000000   0.000000
     41       0.000000   0.000000   0.000000   0.000000   0.000000   0.000000
     42       0.000000   0.000000   0.000000   0.000000   0.000000   0.000000
     43       0.000000   0.000000   0.000000   0.000000   0.000000   0.000000
     44       0.000000   0.000000   0.000000   0.000000   0.000000   0.000000
                  6          7          8          9         10         11    
      0      -0.112404   0.181879  -0.094114  -0.127075  -0.142256   0.035326
      1      -0.194114  -0.121796   0.136493  -0.134166  -0.208091   0.045150
      2       0.230101  -0.119652   0.276201  -0.031271  -0.143347   0.014752
      3      -0.028026   0.135419  -0.030646  -0.020697  -0.042819   0.004624
      4      -0.111819  -0.063837   0.118176   0.014529  -0.049145   0.003654
      5       0.205529   0.051012   0.136662   0.005053  -0.083291   0.003056
      6      -0.099966   0.237789  -0.127398   0.089101  -0.127301  -0.017340
      7      -0.146223  -0.127047   0.168542   0.196133  -0.173392  -0.032221
      8       0.141963   0.181228   0.016903   0.055502  -0.127142  -0.009754
      9       0.065541   0.001800   0.092699  -0.159202  -0.017683   0.012937
     10       0.008300   0.042202   0.058603   0.078044   0.051807  -0.006771
     11       0.117023   0.067462   0.107464   0.037774  -0.122789   0.002989
     12      -0.003515  -0.018386   0.111204   0.039944   0.059966  -0.006386
     13       0.024077   0.048989   0.049966  -0.030323   0.070251  -0.001911
     14      -0.095512   0.029521   0.112797  -0.015439   0.081365  -0.001791
     15      -0.153964   0.263278  -0.169183   0.037508  -0.111098   0.250631
     16      -0.260384  -0.190127   0.172332  -0.159493  -0.341057   0.212229
     17       0.291433  -0.126905   0.298200  -0.109548  -0.085725  -0.201490
     18      -0.177638   0.206405  -0.137773  -0.264145  -0.241049   0.020443
     19      -0.196398  -0.144806   0.157873  -0.026091  -0.199340   0.178146
     20       0.141119  -0.149838   0.278087   0.077753  -0.252002   0.348311
     21      -0.067805   0.111687  -0.032552  -0.240795  -0.150308  -0.139320
     22      -0.183535  -0.071088   0.091427  -0.330766  -0.209317  -0.219462
     23       0.273062  -0.210832   0.355813  -0.083393  -0.151892  -0.077869
     24       0.034832   0.118185   0.004579   0.103323   0.017509  -0.017453
     25      -0.107256  -0.046715   0.101851  -0.064523  -0.032142   0.015442
     26       0.320112   0.075135   0.143794  -0.033735   0.072888   0.002983
     27      -0.046884   0.205488  -0.079141   0.216616  -0.051193   0.220401
     28      -0.098387  -0.084101   0.158173   0.370412  -0.066376   0.312903
     29       0.124094   0.303557  -0.083304   0.105202  -0.093268   0.114170
     30      -0.153229   0.259960  -0.170810  -0.087716  -0.205079  -0.304607
     31      -0.153740  -0.147970   0.187368   0.290984  -0.214924  -0.013054
     32       0.046830   0.160552   0.002242   0.041309  -0.344989  -0.372302
     33      -0.153053   0.330946  -0.205772   0.222287  -0.202581   0.008625
     34      -0.208342  -0.201160   0.197536   0.071935  -0.340060  -0.429299
     35       0.205272   0.175726   0.040294   0.057821   0.007365   0.204939
     36       0.121678  -0.024799   0.117384  -0.270563  -0.038163   0.019794
     37       0.064950   0.086749   0.027288   0.046261   0.041215  -0.005343
     38       0.103591   0.191728   0.008076   0.196974  -0.102108  -0.008066
     39       0.124845  -0.075308   0.162884  -0.245358  -0.029895   0.017785
     40       0.041777   0.081656   0.035729   0.213369   0.052915  -0.016300
     41       0.171387  -0.020863   0.184907  -0.079746  -0.136184   0.010298
     42       0.035744  -0.082938  -0.080794  -0.000520   0.002416   0.000080
     43       0.056540   0.000723  -0.136646   0.001893   0.003211  -0.000009
     44      -0.030062  -0.061612  -0.209050   0.003180   0.003976  -0.000133
                 12         13         14         15         16         17    
      0       0.017697  -0.070909  -0.136951   0.049719  -0.064316  -0.169066
      1       0.008322  -0.007797   0.068109   0.001915   0.042316   0.089933
      2      -0.010965  -0.131528   0.093458   0.029652  -0.046121  -0.071441
      3       0.008703  -0.097026  -0.015878  -0.158839   0.063886  -0.075988
      4       0.010821   0.053730   0.043128  -0.257631   0.117642  -0.132392
      5       0.012249   0.035006  -0.124978  -0.031252  -0.014506   0.034579
      6       0.000051  -0.021222   0.142491  -0.011028   0.047857   0.139641
      7       0.033172   0.063801  -0.086090   0.035810  -0.021468  -0.091471
      8      -0.005632   0.130194   0.071788   0.040081  -0.060121  -0.139852
      9       0.001211   0.139330  -0.008897  -0.121781  -0.105955   0.076913
     10       0.005488  -0.065032  -0.014333  -0.212120  -0.308679   0.111903
     11       0.013086  -0.017301  -0.120048  -0.054388   0.257485   0.181812
     12      -0.005565   0.001681   0.002067   0.032450   0.017187  -0.002145
     13      -0.011550  -0.004553   0.001759   0.060584   0.038949  -0.006663
     14      -0.000063  -0.000390   0.003401  -0.000181  -0.016142   0.001810
     15      -0.271947   0.092870  -0.356746  -0.078323  -0.001297  -0.214185
     16      -0.173589  -0.124106   0.123754   0.269426  -0.192082   0.290420
     17       0.255269  -0.159294   0.185781  -0.048974   0.048801  -0.165682
     18       0.104284  -0.072771  -0.270091   0.393387  -0.320591   0.056472
     19      -0.191843  -0.019416   0.122277  -0.110449   0.104258   0.024023
     20      -0.429915  -0.165462   0.069376   0.170882  -0.201511   0.029007
     21       0.244266  -0.205375   0.054272   0.126455  -0.110222  -0.177637
     22       0.396103   0.011825  -0.028003   0.194290  -0.078797   0.271084
     23       0.093585  -0.280521   0.329920   0.042861  -0.051766  -0.136552
     24       0.014350  -0.106479  -0.018111  -0.185553  -0.032621  -0.058531
     25       0.009572   0.061373   0.043086  -0.268615   0.059564  -0.124297
     26       0.017788   0.041227  -0.125218  -0.103733  -0.317800   0.073146
     27       0.208181  -0.021940   0.032384   0.133785  -0.045075   0.283493
     28       0.311214   0.135199  -0.000759   0.201284  -0.116483  -0.010587
     29       0.064763   0.242818   0.399701   0.043638  -0.044345  -0.253635
     30      -0.256679  -0.035676   0.250073  -0.225264   0.175445   0.011506
     31       0.080068   0.088897  -0.167348   0.257743  -0.187188   0.048989
     32      -0.255251   0.171409   0.024347   0.287144  -0.284466   0.014764
     33       0.034831   0.118827   0.355912   0.258697  -0.141760   0.287132
     34      -0.257095   0.008639  -0.273079   0.062730  -0.100961  -0.012824
     35       0.142834   0.090706   0.069541  -0.113400   0.081286  -0.266895
     36      -0.005941   0.317046   0.003088  -0.045460  -0.062463   0.144626
     37      -0.000739  -0.092896  -0.033353  -0.124326  -0.295859   0.192215
     38       0.016934  -0.399996  -0.176328  -0.058813   0.203400   0.197642
     39      -0.005739   0.382106   0.008843  -0.063772  -0.124878   0.172595
[...]
     14      -0.000082   0.000267   0.000019  -0.000060  -0.000098   0.000101
     15       0.231360  -0.042276  -0.261455   0.167084  -0.455826  -0.008461
     16      -0.425609  -0.059430   0.159464   0.257063  -0.085572   0.332380
     17       0.053800   0.058232   0.087811  -0.220797   0.319023  -0.173148
     18       0.441397   0.107145   0.233423  -0.068387   0.261373   0.130343
     19      -0.101229  -0.032120  -0.176073  -0.112945  -0.031820  -0.221275
     20       0.171276   0.013345  -0.215110  -0.339373   0.188679  -0.428720
     21       0.183429  -0.043353  -0.232105   0.088221  -0.317225  -0.027166
     22      -0.225636  -0.099272  -0.388931  -0.110800  -0.199096  -0.369532
     23       0.330015  -0.002832  -0.108470   0.148603  -0.295762   0.127192
     24      -0.076065  -0.016607  -0.028012   0.080531  -0.009404  -0.028592
     25      -0.004247  -0.013931   0.015431  -0.039072   0.035366  -0.020029
     26      -0.090961  -0.025026   0.010875  -0.018873  -0.053681  -0.122089
     27      -0.101978  -0.079788   0.290182   0.085652  -0.118091  -0.255652
     28       0.023154  -0.108345   0.408730  -0.076147  -0.251390  -0.222105
     29       0.241048  -0.020702   0.130577  -0.320913  -0.217240   0.141947
     30      -0.076335  -0.074749   0.331877   0.174213  -0.114345  -0.335762
     31       0.169744   0.084253  -0.178124   0.099330   0.127147   0.088652
     32       0.234615   0.060881   0.085534   0.437981   0.120520  -0.276132
     33      -0.277041   0.000181  -0.288037  -0.038371   0.185698   0.220666
     34      -0.058664  -0.107688   0.208568  -0.481557  -0.300968   0.131201
     35       0.137632   0.064080  -0.002075   0.282059   0.092118  -0.182053
     36      -0.105654   0.322582   0.019703   0.000320  -0.069239  -0.018438
     37      -0.062870  -0.045532   0.004405   0.037836   0.009437   0.008596
     38       0.060576  -0.592861  -0.016944   0.069144   0.120967   0.019720
     39       0.054820  -0.390969  -0.023188  -0.001741   0.091879   0.017880
     40      -0.100027   0.340143   0.010256  -0.044954  -0.061878  -0.018110
     41       0.066794  -0.423701  -0.027521  -0.001499   0.095889   0.004519
     42      -0.000064   0.000016  -0.000015   0.000009   0.000091   0.000010
     43      -0.000000   0.000019   0.000008  -0.000005   0.000089  -0.000030
     44      -0.000113   0.000001   0.000018   0.000003   0.000072   0.000066
                 36         37         38         39         40         41    
      0      -0.004352  -0.031770   0.010692  -0.000200   0.059734   0.024547
      1      -0.003441   0.029598  -0.010343  -0.000689   0.062020   0.023617
      2       0.001300  -0.021884   0.007834   0.001577  -0.006788  -0.004376
      3       0.037191   0.001456   0.001539   0.002693   0.001501   0.003529
      4       0.069944  -0.001536   0.001330   0.004394   0.002851   0.007022
      5      -0.023201   0.000479  -0.002019   0.000521  -0.000927  -0.002698
      6      -0.000543  -0.011792  -0.035718  -0.000502  -0.006236   0.005585
      7      -0.005815   0.003168   0.008654  -0.001136  -0.034497   0.083402
      8       0.000436   0.010543   0.032167   0.001353   0.004867  -0.020624
      9       0.000782  -0.000027  -0.000450  -0.002140  -0.001025   0.000213
     10       0.000554   0.000478  -0.000759   0.026328   0.000633   0.000328
     11       0.003299  -0.000116   0.000615  -0.063038   0.000107  -0.000972
     12      -0.000077   0.000011   0.000006  -0.000013   0.000029  -0.000013
     13      -0.000143  -0.000009   0.000007  -0.000060  -0.000017  -0.000005
     14      -0.000009   0.000016  -0.000022   0.000086   0.000013   0.000030
     15       0.011193   0.235842  -0.079660  -0.005461  -0.196057  -0.073030
     16       0.014970   0.250195  -0.083674  -0.003823  -0.202297  -0.074803
     17       0.027651   0.423419  -0.142458  -0.007713  -0.367023  -0.136996
     18       0.017940  -0.240567   0.081260   0.005275  -0.300504  -0.118041
     19       0.034262  -0.482034   0.165760   0.010445  -0.624163  -0.251106
     20      -0.011788   0.182476  -0.062707  -0.003253   0.236821   0.094728
     21       0.025185   0.366908  -0.122786   0.003540  -0.216368  -0.100217
     22      -0.009698  -0.113745   0.039056  -0.000773   0.080802   0.035906
     23      -0.028815  -0.355439   0.116754  -0.004985   0.213365   0.097336
     24      -0.449563   0.001381  -0.011022  -0.024337  -0.014343  -0.037895
     25      -0.841030   0.007141  -0.019069  -0.044038  -0.028872  -0.070423
     26       0.267718  -0.002229   0.008007   0.011362   0.008910   0.023424
     27      -0.030041   0.124350   0.368057  -0.001848  -0.125787   0.366246
     28       0.024646  -0.114469  -0.335761   0.001916   0.106627  -0.317921
     29      -0.020322   0.076815   0.220742  -0.002836  -0.072723   0.211554
     30       0.017141   0.087536   0.265475   0.007963   0.139609  -0.339199
     31       0.031420   0.159300   0.475846   0.014061   0.245730  -0.583938
     32      -0.010803  -0.061176  -0.185655  -0.004930  -0.097143   0.233373
     33       0.017190  -0.075324  -0.219027  -0.001415   0.058439  -0.099474
     34       0.013534  -0.080326  -0.235175  -0.003497   0.058814  -0.097747
     35       0.029369  -0.137727  -0.403792  -0.005180   0.111868  -0.194619
     36      -0.027623   0.004105  -0.007248   0.515039   0.003874   0.005111
     37       0.022360  -0.004223   0.007201  -0.429541  -0.003533  -0.003865
     38      -0.010390   0.001245  -0.002124   0.253508   0.001632   0.003829
     39       0.030583  -0.002391   0.010056  -0.495769   0.005098  -0.005798
     40      -0.008600   0.000373  -0.001356   0.115762  -0.001090   0.001133
     41      -0.025451   0.001393  -0.006622   0.467738  -0.003984   0.006664
     42      -0.000000  -0.000009  -0.000004  -0.000002   0.000008  -0.000004
     43      -0.000003   0.000009  -0.000000  -0.000001  -0.000001   0.000004
     44      -0.000000   0.000010  -0.000004  -0.000006  -0.000002  -0.000001
                  42         43         44    
      0       0.022791  -0.001213   0.000024
      1      -0.031732   0.009670   0.000903
      2      -0.083667   0.015558   0.000172
      3       0.000791   0.001078   0.001175
      4       0.000764   0.000676  -0.000311
      5      -0.001268   0.000801  -0.000206
      6       0.011974   0.064169  -0.000689
      7      -0.000056   0.009877  -0.000324
      8       0.013524   0.065194   0.000098
      9       0.000445   0.000163   0.084216
     10       0.000045  -0.000342  -0.044507
     11      -0.000525  -0.000010  -0.020206
     12       0.000013  -0.000010  -0.000093
     13       0.000006  -0.000007   0.000051
     14       0.000005   0.000000   0.000025
     15       0.281752  -0.067017  -0.002943
     16       0.283266  -0.065359  -0.002643
     17       0.484206  -0.114339  -0.003935
     18      -0.029447  -0.010683  -0.002711
     19      -0.072666  -0.020500  -0.005521
     20       0.013782   0.010639   0.002061
     21      -0.525880   0.088526  -0.000067
     22       0.167140  -0.028331   0.000159
     23       0.499889  -0.084397  -0.002243
     24      -0.005802  -0.005225  -0.003011
     25      -0.010098  -0.007724  -0.002398
     26       0.004876   0.000862   0.001217
     27      -0.082789  -0.389763  -0.000123
     28       0.076687   0.359214   0.000121
     29      -0.048489  -0.226888   0.001917
     30      -0.003471  -0.060243   0.002562
     31      -0.008388  -0.121443   0.004621
     32       0.005306   0.058036  -0.001630
     33      -0.060295  -0.317134   0.001243
     34      -0.066237  -0.356609   0.002120
     35      -0.113282  -0.608995   0.002279
     36       0.002890  -0.004908  -0.490132
     37      -0.002839   0.003664   0.413307
     38       0.002217  -0.004214  -0.255883
     39      -0.006608   0.001955  -0.506897
     40       0.001864   0.000085   0.113251
     41       0.008529  -0.003092   0.494042
     42      -0.000005   0.000004  -0.000001
     43      -0.000000   0.000008   0.000001
     44      -0.000004   0.000009   0.000002


-----------
IR SPECTRUM
-----------

 Mode    freq (cm**-1)   T**2         TX         TY         TZ
-------------------------------------------------------------------
   7:        20.89    4.490835  (  1.639674   0.000676   1.342499)
   8:        34.45    9.178512  (  0.933378   1.545746   2.432691)
   9:       109.99    0.293763  ( -0.475478   0.234738   0.112168)
  10:       176.21    3.287149  ( -0.858355  -0.974023  -1.265565)
  11:       248.35    0.160032  (  0.392837  -0.072597   0.020988)
  12:       267.41    0.547117  (  0.436416   0.596161  -0.035361)
  13:       363.63    1.110940  (  0.994263  -0.279452  -0.210447)
  14:       373.57    0.297801  (  0.193987  -0.455164   0.230208)
  15:       475.91    6.753193  ( -1.170565  -2.311220  -0.203054)
  16:       625.24   44.271233  ( -3.327564  -5.669888  -1.025141)
  17:       819.36   20.258222  (  2.506223   3.489298   1.342335)
  18:       854.40    4.593582  ( -1.653730   1.252957   0.537456)
  19:       926.54    2.561421  (  1.304537  -0.873869  -0.309770)
  20:       979.00    0.639118  (  0.729922   0.004491   0.326054)
  21:       991.80   16.657987  (  2.024868   2.320649   2.678150)
  22:      1072.68    2.621109  ( -0.418742   0.167890  -1.554856)
  23:      1083.36    1.415997  (  0.960422  -0.679650  -0.177937)
  24:      1206.22    1.997928  ( -0.637669   0.285377  -1.228766)
  25:      1211.06    1.169140  (  0.792340  -0.369478  -0.636257)
  26:      1254.90   62.663574  ( -3.522668  -7.064073   0.594357)
  27:      1332.78   16.568710  (  2.108877   2.983318   1.794758)
  28:      1335.35    8.981972  (  1.541401   2.175042   1.369396)
  29:      1385.47   13.955165  (  2.962225  -1.860663  -1.310849)
  30:      1392.47    7.882950  (  1.042717  -0.461202   2.565733)
  31:      1429.32    8.581947  ( -0.925691  -0.743317  -2.678156)
  32:      1441.15    0.933026  ( -0.717666   0.614803  -0.199996)
  33:      1456.20    2.690008  (  0.837887  -1.308178   0.525949)
  34:      1465.55   17.839353  ( -1.234077  -2.767893   2.941968)
  35:      1468.21    8.925018  ( -1.155043  -1.117669  -2.518275)
  36:      3026.38   18.564266  (  1.525624   3.265410  -2.360897)
  37:      3039.91   41.926330  ( -4.354396   4.549973   1.504430)
  38:      3043.95   15.693307  ( -3.685168  -0.253811   1.431231)
  39:      3118.90   15.360266  (  0.573527   2.385993  -3.055875)
  40:      3137.16   13.554241  (  3.007284   0.238001  -2.110412)
  41:      3139.17   42.912811  (  0.779961   5.748611  -3.042688)
  42:      3145.38   14.317746  (  3.406203  -0.435588  -1.589273)
  43:      3147.08    7.550747  (  1.863850  -0.209853   2.008177)
  44:      3199.09    2.988461  (  1.513640  -0.759159  -0.347898)

The first frequency considered to be a vibration is 7
The total number of vibrations considered is 38


--------------------------
THERMOCHEMISTRY AT 298.15K
--------------------------

Temperature         ... 298.15 K
Pressure            ... 1.00 atm
Total Mass          ... 216.92 AMU

Throughout the following assumptions are being made:
  (1) The electronic state is orbitally nondegenerate
  (2) There are no thermally accessible electronically excited states
  (3) Hindered rotations indicated by low frequency modes are not
      treated as such but are treated as vibrations and this may
      cause some error
  (4) All equations used are the standard statistical mechanics
      equations for an ideal gas
  (5) All vibrations are strictly harmonic

freq.      20.89  E(vib)   ...       0.56 
freq.      34.45  E(vib)   ...       0.54 
freq.     109.99  E(vib)   ...       0.45 
freq.     176.21  E(vib)   ...       0.38 
freq.     248.35  E(vib)   ...       0.31 
freq.     267.41  E(vib)   ...       0.29 
freq.     363.63  E(vib)   ...       0.22 
freq.     373.57  E(vib)   ...       0.21 
freq.     475.91  E(vib)   ...       0.15 
freq.     625.24  E(vib)   ...       0.09 
freq.     819.36  E(vib)   ...       0.05 
freq.     854.40  E(vib)   ...       0.04 
freq.     926.54  E(vib)   ...       0.03 
freq.     979.00  E(vib)   ...       0.03 
freq.     991.80  E(vib)   ...       0.02 
freq.    1072.68  E(vib)   ...       0.02 
freq.    1083.36  E(vib)   ...       0.02 
freq.    1206.22  E(vib)   ...       0.01 
freq.    1211.06  E(vib)   ...       0.01 
freq.    1254.90  E(vib)   ...       0.01 
freq.    1332.78  E(vib)   ...       0.01 
freq.    1335.35  E(vib)   ...       0.01 
freq.    1385.47  E(vib)   ...       0.00 
freq.    1392.47  E(vib)   ...       0.00 
freq.    1429.32  E(vib)   ...       0.00 
freq.    1441.15  E(vib)   ...       0.00 
freq.    1456.20  E(vib)   ...       0.00 
freq.    1465.55  E(vib)   ...       0.00 
freq.    1468.21  E(vib)   ...       0.00 
freq.    3026.38  E(vib)   ...       0.00 
freq.    3039.91  E(vib)   ...       0.00 
freq.    3043.95  E(vib)   ...       0.00 
freq.    3118.90  E(vib)   ...       0.00 
freq.    3137.16  E(vib)   ...       0.00 
freq.    3139.17  E(vib)   ...       0.00 
freq.    3145.38  E(vib)   ...       0.00 
freq.    3147.08  E(vib)   ...       0.00 
freq.    3199.09  E(vib)   ...       0.00 

------------
INNER ENERGY
------------

The inner energy is: U= E(el) + E(ZPE) + E(vib) + E(rot) + E(trans)
    E(el)   - is the total energy from the electronic structure calculation
              = E(kin-el) + E(nuc-el) + E(el-el) + E(nuc-nuc)
    E(ZPE)  - the the zero temperature vibrational energy from the frequency calculation
    E(vib)  - the the finite temperature correction to E(ZPE) due to population
              of excited vibrational states
    E(rot)  - is the rotational thermal energy
    E(trans)- is the translational thermal energy

Summary of contributions to the inner energy U:
Electronic energy                ...  -5304.82256228 Eh
Zero point energy                ...      0.12256196 Eh      76.91 kcal/mol
Thermal vibrational correction   ...      0.00553223 Eh       3.47 kcal/mol
Thermal rotational correction    ...      0.00141627 Eh       0.89 kcal/mol
Thermal translational correction ...      0.00141627 Eh       0.89 kcal/mol
-----------------------------------------------------------------------
Total thermal energy                  -5304.69163556 Eh


Summary of corrections to the electronic energy:
(perhaps to be used in another calculation)
Total thermal correction                  0.00836477 Eh       5.25 kcal/mol
Non-thermal (ZPE) correction              0.12256196 Eh      76.91 kcal/mol
-----------------------------------------------------------------------
Total correction                          0.13092673 Eh      82.16 kcal/mol


--------
ENTHALPY
--------

The enthalpy is H = U + kB*T
                kB is Boltzmann's constant
Total free energy                 ...  -5304.69163556 Eh 
Thermal Enthalpy correction       ...      0.00094421 Eh       0.59 kcal/mol
-----------------------------------------------------------------------
Total Enthalpy                    ...  -5304.69069135 Eh


Note: Only C1 symmetry has been detected, increase convergence thresholds 
      if your molecule has a higher symmetry. Symmetry factor of 1.0 is   
      used for the rotational entropy correction. 
 

Note: Rotational entropy computed according to Herzberg 
Infrared and Raman Spectra, Chapter V,1, Van Nostrand Reinhold, 1945 
Point Group:  C1, Symmetry Number:   1  
Rotational constants in cm-1:     0.147561     0.007723     0.007677 

Vibrational entropy computed according to the QRRHO of S. Grimme
Chem.Eur.J. 2012 18 9955


-------
ENTROPY
-------

The entropy contributions are T*S = T*(S(el)+S(vib)+S(rot)+S(trans))
     S(el)   - electronic entropy
     S(vib)  - vibrational entropy
     S(rot)  - rotational entropy
     S(trans)- translational entropy
The entropies will be listed as mutliplied by the temperature to get
units of energy

Electronic entropy                ...      0.00000000 Eh      0.00 kcal/mol
Vibrational entropy               ...      0.01023424 Eh      6.42 kcal/mol
Rotational entropy                ...      0.01500909 Eh      9.42 kcal/mol
Translational entropy             ...      0.01996792 Eh     12.53 kcal/mol
-----------------------------------------------------------------------
Final entropy term                ...      0.04521124 Eh     28.37 kcal/mol

In case the symmetry of your molecule has not been determined correctly
or in case you have a reason to use a different symmetry number we print 
out the resulting rotational entropy values for sn=1,12 :
 --------------------------------------------------------
|  sn= 1 | S(rot)=       0.01500909 Eh      9.42 kcal/mol|
|  sn= 2 | S(rot)=       0.01435463 Eh      9.01 kcal/mol|
|  sn= 3 | S(rot)=       0.01397180 Eh      8.77 kcal/mol|
|  sn= 4 | S(rot)=       0.01370017 Eh      8.60 kcal/mol|
|  sn= 5 | S(rot)=       0.01348948 Eh      8.46 kcal/mol|
|  sn= 6 | S(rot)=       0.01331734 Eh      8.36 kcal/mol|
|  sn= 7 | S(rot)=       0.01317179 Eh      8.27 kcal/mol|
|  sn= 8 | S(rot)=       0.01304572 Eh      8.19 kcal/mol|
|  sn= 9 | S(rot)=       0.01293451 Eh      8.12 kcal/mol|
|  sn=10 | S(rot)=       0.01283503 Eh      8.05 kcal/mol|
|  sn=11 | S(rot)=       0.01274504 Eh      8.00 kcal/mol|
|  sn=12 | S(rot)=       0.01266288 Eh      7.95 kcal/mol|
 --------------------------------------------------------


-------------------
GIBBS FREE ENERGY
-------------------

The Gibbs free energy is G = H - T*S

Total enthalpy                    ...  -5304.69069135 Eh 
Total entropy correction          ...     -0.04521124 Eh    -28.37 kcal/mol
-----------------------------------------------------------------------
Final Gibbs free energy         ...  -5304.73590259 Eh

For completeness - the Gibbs free energy minus the electronic energy
G-E(el)                           ...      0.08665969 Eh     54.38 kcal/mol

[1631286140.453438] [comp0802:208857:0]            sys.c:618  UCX  ERROR shmget(size=2097152 flags=0xfb0) for mm_recv_desc failed: Operation not permitted, please check shared memory limits by 'ipcs -l'
[1631286140.464981] [comp0802:208855:0]            sys.c:618  UCX  ERROR shmget(size=2097152 flags=0xfb0) for mm_recv_desc failed: Operation not permitted, please check shared memory limits by 'ipcs -l'
[1631286140.477099] [comp0802:208856:0]            sys.c:618  UCX  ERROR shmget(size=2097152 flags=0xfb0) for mm_recv_desc failed: Operation not permitted, please check shared memory limits by 'ipcs -l'
[1631286140.477063] [comp0802:208858:0]            sys.c:618  UCX  ERROR shmget(size=2097152 flags=0xfb0) for mm_recv_desc failed: Operation not permitted, please check shared memory limits by 'ipcs -l'
[1631286140.497350] [comp0802:208857:0]            sys.c:618  UCX  ERROR shmget(size=2097152 flags=0xb80) for ucp_am_bufs failed: Operation not permitted, please check shared memory limits by 'ipcs -l'
[1631286140.497365] [comp0802:208855:0]            sys.c:618  UCX  ERROR shmget(size=2097152 flags=0xb80) for ucp_am_bufs failed: Operation not permitted, please check shared memory limits by 'ipcs -l'
[1631286140.498145] [comp0802:208858:0]            sys.c:618  UCX  ERROR shmget(size=2097152 flags=0xb80) for ucp_am_bufs failed: Operation not permitted, please check shared memory limits by 'ipcs -l'
[1631286140.498150] [comp0802:208856:0]            sys.c:618  UCX  ERROR shmget(size=2097152 flags=0xb80) for ucp_am_bufs failed: Operation not permitted, please check shared memory limits by 'ipcs -l'

Timings for individual modules:

Sum of individual times         ...       93.924 sec (=   1.565 min)
GTO integral calculation        ...        2.544 sec (=   0.042 min)   2.7 %
SCF iterations                  ...       15.043 sec (=   0.251 min)  16.0 %
Analytical frequency calculation...       76.336 sec (=   1.272 min)  81.3 %
                             ****ORCA TERMINATED NORMALLY****
TOTAL RUN TIME: 0 days 0 hours 1 minutes 35 seconds 475 msec
