
                                 *****************
                                 * O   R   C   A *
                                 *****************

           --- An Ab Initio, DFT and Semiempirical electronic structure package ---

                  #######################################################
                  #                        -***-                        #
                  #          Department of theory and spectroscopy      #
                  #               Directorship: Frank Neese             #
                  #        Max Planck Institute fuer Kohlenforschung    #
                  #                Kaiser Wilhelm Platz 1               #
                  #                 D-45470 Muelheim/Ruhr               #
                  #                      Germany                        #
                  #                                                     #
                  #                  All rights reserved                #
                  #                        -***-                        #
                  #######################################################


                         Program Version 4.2.1 -  RELEASE  -


 With contributions from (in alphabetic order):
   Daniel Aravena         : Magnetic Suceptibility
   Michael Atanasov       : Ab Initio Ligand Field Theory (pilot matlab implementation)
   Alexander A. Auer      : GIAO ZORA, VPT2
   Ute Becker             : Parallelization
   Giovanni Bistoni       : ED, misc. LED, open-shell LED, HFLD
   Martin Brehm           : Molecular dynamics
   Dmytro Bykov           : SCF Hessian
   Vijay G. Chilkuri      : MRCI spin determinant printing, contributions to CSF-ICE
   Dipayan Datta          : RHF DLPNO-CCSD density
   Achintya Kumar Dutta   : EOM-CC, STEOM-CC
   Dmitry Ganyushin       : Spin-Orbit,Spin-Spin,Magnetic field MRCI
   Miquel Garcia          : C-PCM Hessian, Gaussian charge scheme
   Yang Guo               : DLPNO-NEVPT2, CIM, IAO-localization
   Andreas Hansen         : Spin unrestricted coupled pair/coupled cluster methods
   Benjamin Helmich-Paris : CASSCF linear response (MC-RPA)
   Lee Huntington         : MR-EOM, pCC
   Robert Izsak           : Overlap fitted RIJCOSX, COSX-SCS-MP3, EOM
   Christian Kollmar      : KDIIS, OOCD, Brueckner-CCSD(T), CCSD density
   Simone Kossmann        : Meta GGA functionals, TD-DFT gradient, OOMP2, MP2 Hessian
   Martin Krupicka        : AUTO-CI
   Lucas Lang             : DCDCAS
   Dagmar Lenk            : GEPOL surface, SMD
   Dimitrios Liakos       : Extrapolation schemes; Compound Job, initial MDCI parallelization
   Dimitrios Manganas     : Further ROCIS development; embedding schemes
   Dimitrios Pantazis     : SARC Basis sets
   Taras Petrenko         : DFT Hessian,TD-DFT gradient, ASA, ECA, R-Raman, ABS, FL, XAS/XES, NRVS
   Peter Pinski           : DLPNO-MP2, DLPNO-MP2 Gradient
   Christoph Reimann      : Effective Core Potentials
   Marius Retegan         : Local ZFS, SOC
   Christoph Riplinger    : Optimizer, TS searches, QM/MM, DLPNO-CCSD(T), (RO)-DLPNO pert. Triples
   Tobias Risthaus        : Range-separated hybrids, TD-DFT gradient, RPA, STAB
   Michael Roemelt        : Original ROCIS implementation
   Masaaki Saitow         : Open-shell DLPNO-CCSD energy and density
   Barbara Sandhoefer     : DKH picture change effects
   Avijit Sen             : IP-ROCIS
   Kantharuban Sivalingam : CASSCF convergence, NEVPT2, FIC-MRCI
   Bernardo de Souza      : ESD, SOC TD-DFT
   Georgi Stoychev        : AutoAux, RI-MP2 NMR
   Willem Van den Heuvel  : Paramagnetic NMR
   Boris Wezisla          : Elementary symmetry handling
   Frank Wennmohs         : Technical directorship


 We gratefully acknowledge several colleagues who have allowed us to
 interface, adapt or use parts of their codes:
   Stefan Grimme, W. Hujo, H. Kruse,             : VdW corrections, initial TS optimization,
                  C. Bannwarth                     DFT functionals, gCP, sTDA/sTD-DF
   Ed Valeev, F. Pavosevic, A. Kumar             : LibInt (2-el integral package), F12 methods
   Garnet Chan, S. Sharma, J. Yang, R. Olivares  : DMRG
   Ulf Ekstrom                                   : XCFun DFT Library
   Mihaly Kallay                                 : mrcc  (arbitrary order and MRCC methods)
   Andreas Klamt, Michael Diedenhofen            : otool_cosmo (COSMO solvation model)
   Jiri Pittner, Ondrej Demel                    : Mk-CCSD
   Frank Weinhold                                : gennbo (NPA and NBO analysis)
   Christopher J. Cramer and Donald G. Truhlar   : smd solvation model
   Lars Goerigk                                  : TD-DFT with DH, B97 family of functionals
   V. Asgeirsson, H. Jonsson                     : NEB implementation
   FAccTs GmbH                                   : IRC, NEB, NEB-TS, Multilevel, MM, QM/MM, CI optimization
   S Lehtola, MJT Oliveira, MAL Marques          : LibXC Library


 Your calculation uses the libint2 library for the computation of 2-el integrals
 For citations please refer to: http://libint.valeyev.net

 Your ORCA version has been built with support for libXC version: 4.2.3
 For citations please refer to: https://tddft.org/programs/libxc/

 This ORCA versions uses:
   CBLAS   interface :  Fast vector & matrix operations
   LAPACKE interface :  Fast linear algebra routines
   SCALAPACK package :  Parallel linear algebra routines


Your calculation utilizes the atom-pairwise dispersion correction
with the Becke-Johnson damping scheme (D3BJ)
Cite in your paper:
S.Grimme, S.Ehrlich, L.Goerigk, J Comput Chem, (2011), 32, 1456–1465 
S.Grimme, J.Antony, S.Ehrlich and H.Krieg, J.Chem.Phys., 132, (2010), 154104 
   

----- Orbital basis set information -----
Your calculation utilizes the basis: def2-SVP
   F. Weigend and R. Ahlrichs, Phys. Chem. Chem. Phys. 7, 3297 (2005).

----- AuxJ basis set information -----
Your calculation utilizes the auxiliary basis: def2/J
   F. Weigend, Phys. Chem. Chem. Phys. 8, 1057 (2006).

================================================================================
                                        WARNINGS
                       Please study these warnings very carefully!
================================================================================


INFO   : the flag for use of LIBINT has been found!

================================================================================
                                       INPUT FILE
================================================================================
NAME = manual_reactants_332_freq.inp
|  1> ! Freq PBE0 RIJCOSX D3BJ def2-SVP def2/J CPCM(Acetone)
|  2> %geom MaxIter 100 end
|  3> %output 
|  4> xyzfile=True 
|  5> end 
|  6> %scf 
|  7> maxiter 250 
|  8> end
|  9> %output
| 10> Print[P_Hirshfeld] = 1
| 11> end
| 12> % maxcore
| 13> 4000
| 14> %pal nprocs 4
| 15> end
| 16> *xyz -1 1
| 17>   C   1.38676343781483     -0.50070692648455     -0.85113703756399
| 18>   C   0.10282325643984     -0.23705841915218     -0.10077833998079
| 19>   C   -0.70069084855389     -1.48001335490332      0.20314542185045
| 20>   Br  -1.01833724084234      1.02272479165688     -1.15434352377750
| 21>   H   1.90940732673292      0.43286533760312     -1.10271707522504
| 22>   H   1.19811626613602     -1.06263863062883     -1.77864885569647
| 23>   H   2.04545600042489     -1.10047801199197     -0.20239551690917
| 24>   H   0.30589884646771      0.32532249216837      0.82077121461565
| 25>   H   -1.62090891524803     -1.24508528817934      0.75621565913002
| 26>   H   -0.08255890290999     -2.13900173320669      0.83410727354168
| 27>   H   -0.96849834964586     -2.01964746467622     -0.71815234927918
| 28>   Br  2.10407912318389     -1.45245279220526      3.13843312929433
| 29> *
| 30> 
| 31>                          ****END OF INPUT****
================================================================================

                       ****************************
                       * Single Point Calculation *
                       ****************************

---------------------------------
CARTESIAN COORDINATES (ANGSTROEM)
---------------------------------
  C      1.386763   -0.500707   -0.851137
  C      0.102823   -0.237058   -0.100778
  C     -0.700691   -1.480013    0.203145
  Br    -1.018337    1.022725   -1.154344
  H      1.909407    0.432865   -1.102717
  H      1.198116   -1.062639   -1.778649
  H      2.045456   -1.100478   -0.202396
  H      0.305899    0.325322    0.820771
  H     -1.620909   -1.245085    0.756216
  H     -0.082559   -2.139002    0.834107
  H     -0.968498   -2.019647   -0.718152
  Br     2.104079   -1.452453    3.138433

----------------------------
CARTESIAN COORDINATES (A.U.)
----------------------------
  NO LB      ZA    FRAG     MASS         X           Y           Z
   0 C     6.0000    0    12.011    2.620603   -0.946199   -1.608416
   1 C     6.0000    0    12.011    0.194308   -0.447975   -0.190443
   2 C     6.0000    0    12.011   -1.324114   -2.796820    0.383889
   3 Br   35.0000    0    79.900   -1.924378    1.932670   -2.181393
   4 H     1.0000    0     1.008    3.608257    0.817997   -2.083833
   5 H     1.0000    0     1.008    2.264112   -2.008096   -3.361159
   6 H     1.0000    0     1.008    3.865352   -2.079602   -0.382472
   7 H     1.0000    0     1.008    0.578065    0.614770    1.551033
   8 H     1.0000    0     1.008   -3.063074   -2.352870    1.429040
   9 H     1.0000    0     1.008   -0.156014   -4.042127    1.576234
  10 H     1.0000    0     1.008   -1.830197   -3.816581   -1.357111
  11 Br   35.0000    0    79.900    3.976133   -2.744738    5.930779

--------------------------------
INTERNAL COORDINATES (ANGSTROEM)
--------------------------------
 C      0   0   0     0.000000000000     0.00000000     0.00000000
 C      1   0   0     1.510314900876     0.00000000     0.00000000
 C      2   1   0     1.510940615060   114.10561510     0.00000000
 Br     2   1   3     1.988480373404   109.06729750   237.67361406
 H      1   2   3     1.099093409245   111.69675530   176.65731007
 H      1   2   3     1.100742098895   111.22655681    54.88155454
 H      1   2   3     1.102028496760   108.09886942   295.61859211
 H      2   1   3     1.098528819039   110.42587800   125.21330721
 H      3   2   1     1.099035565471   111.75575993   179.51925149
 H      3   2   1     1.102027968454   107.98681584    60.85046948
 H      3   2   1     1.100779457094   111.36508051   301.43700438
 Br    10   3   2     3.250023531459   131.07195244    34.37195962

---------------------------
INTERNAL COORDINATES (A.U.)
---------------------------
 C      0   0   0     0.000000000000     0.00000000     0.00000000
 C      1   0   0     2.854081538635     0.00000000     0.00000000
 C      2   1   0     2.855263967082   114.10561510     0.00000000
 Br     2   1   3     3.757683328410   109.06729750   237.67361406
 H      1   2   3     2.076985539072   111.69675530   176.65731007
 H      1   2   3     2.080101110990   111.22655681    54.88155454
 H      1   2   3     2.082532050652   108.09886942   295.61859211
 H      2   1   3     2.075918618204   110.42587800   125.21330721
 H      3   2   1     2.076876230179   111.75575993   179.51925149
 H      3   2   1     2.082531052299   107.98681584    60.85046948
 H      3   2   1     2.080171707754   111.36508051   301.43700438
 Br    10   3   2     6.141654403258   131.07195244    34.37195962

---------------------
BASIS SET INFORMATION
---------------------
There are 3 groups of distinct atoms

 Group   1 Type C   : 7s4p1d contracted to 3s2p1d pattern {511/31/1}
 Group   2 Type Br  : 14s10p6d contracted to 5s4p3d pattern {63311/5311/411}
 Group   3 Type H   : 4s1p contracted to 2s1p pattern {31/1}

Atom   0C    basis set group =>   1
Atom   1C    basis set group =>   1
Atom   2C    basis set group =>   1
Atom   3Br   basis set group =>   2
Atom   4H    basis set group =>   3
Atom   5H    basis set group =>   3
Atom   6H    basis set group =>   3
Atom   7H    basis set group =>   3
Atom   8H    basis set group =>   3
Atom   9H    basis set group =>   3
Atom  10H    basis set group =>   3
Atom  11Br   basis set group =>   2
---------------------------------
AUXILIARY/J BASIS SET INFORMATION
---------------------------------
There are 3 groups of distinct atoms

 Group   1 Type C   : 12s5p4d2f1g contracted to 6s4p3d1f1g pattern {711111/2111/211/2/1}
 Group   2 Type Br  : 19s5p5d3f1g contracted to 8s4p3d2f1g pattern {121111111/2111/311/21/1}
 Group   3 Type H   : 5s2p1d contracted to 3s1p1d pattern {311/2/1}

Atom   0C    basis set group =>   1
Atom   1C    basis set group =>   1
Atom   2C    basis set group =>   1
Atom   3Br   basis set group =>   2
Atom   4H    basis set group =>   3
Atom   5H    basis set group =>   3
Atom   6H    basis set group =>   3
Atom   7H    basis set group =>   3
Atom   8H    basis set group =>   3
Atom   9H    basis set group =>   3
Atom  10H    basis set group =>   3
Atom  11Br   basis set group =>   2
[1631286058.722366] [comp0806:24144:0]            sys.c:618  UCX  ERROR shmget(size=2097152 flags=0xfb0) for mm_recv_desc failed: Operation not permitted, please check shared memory limits by 'ipcs -l'
[1631286058.723563] [comp0806:24146:0]            sys.c:618  UCX  ERROR shmget(size=2097152 flags=0xfb0) for mm_recv_desc failed: Operation not permitted, please check shared memory limits by 'ipcs -l'
[1631286058.739837] [comp0806:24147:0]            sys.c:618  UCX  ERROR shmget(size=2097152 flags=0xfb0) for mm_recv_desc failed: Operation not permitted, please check shared memory limits by 'ipcs -l'
[1631286058.741551] [comp0806:24145:0]            sys.c:618  UCX  ERROR shmget(size=2097152 flags=0xfb0) for mm_recv_desc failed: Operation not permitted, please check shared memory limits by 'ipcs -l'
[1631286058.753932] [comp0806:24144:0]            sys.c:618  UCX  ERROR shmget(size=2097152 flags=0xb80) for ucp_am_bufs failed: Operation not permitted, please check shared memory limits by 'ipcs -l'
[1631286058.755069] [comp0806:24146:0]            sys.c:618  UCX  ERROR shmget(size=2097152 flags=0xb80) for ucp_am_bufs failed: Operation not permitted, please check shared memory limits by 'ipcs -l'
[1631286058.755569] [comp0806:24145:0]            sys.c:618  UCX  ERROR shmget(size=2097152 flags=0xb80) for ucp_am_bufs failed: Operation not permitted, please check shared memory limits by 'ipcs -l'
[1631286058.755641] [comp0806:24147:0]            sys.c:618  UCX  ERROR shmget(size=2097152 flags=0xb80) for ucp_am_bufs failed: Operation not permitted, please check shared memory limits by 'ipcs -l'


           ************************************************************
           *        Program running with 4 parallel MPI-processes     *
           *              working on a common directory               *
           ************************************************************
------------------------------------------------------------------------------
                           ORCA GTO INTEGRAL CALCULATION
                           -- RI-GTO INTEGRALS CHOSEN --
------------------------------------------------------------------------------

                         BASIS SET STATISTICS AND STARTUP INFO

Gaussian basis set:
 # of primitive gaussian shells          ...  131
 # of primitive gaussian functions       ...  269
 # of contracted shells                  ...   63
 # of contracted basis functions         ...  141
 Highest angular momentum                ...    2
 Maximum contraction depth               ...    6
Auxiliary gaussian basis set:
 # of primitive gaussian shells          ...  194
 # of primitive gaussian functions       ...  500
 # of contracted shells                  ...  116
 # of contracted aux-basis functions     ...  340
 Highest angular momentum                ...    4
 Maximum contraction depth               ...   12
Ratio of auxiliary to basis functions    ...  2.41
Integral package used                  ... LIBINT
 One Electron integrals                  ... done
 Ordering auxiliary basis shells         ... done
 Integral threshhold             Thresh  ...  1.000e-10
 Primitive cut-off               TCut    ...  1.000e-11
 Pre-screening matrix                    ... done
 Shell pair data                         ... 
 Ordering of the shell pairs             ... done (   0.000 sec) 1798 of 2016 pairs
 Determination of significant pairs      ... done (   0.000 sec)
 Creation of shell pair data             ... done (   0.000 sec)
 Storage of shell pair data              ... done (   0.001 sec)
 Shell pair data done in (   0.001 sec)
 Computing two index integrals           ... done
 Cholesky decomposition of the V-matrix  ... done


Timings:
 Total evaluation time                   ...   0.204 sec (  0.003 min)
 One electron matrix time                ...   0.019 sec (  0.000 min) =  9.5%
 Schwartz matrix evaluation time         ...   0.141 sec (  0.002 min) = 69.2%
 Two index repulsion integral time       ...   0.003 sec (  0.000 min) =  1.3%
 Cholesky decomposition of V             ...   0.002 sec (  0.000 min) =  1.0%
 Three index repulsion integral time     ...   0.000 sec (  0.000 min) =  0.0%

[1631286059.856849] [comp0806:24167:0]            sys.c:618  UCX  ERROR shmget(size=2097152 flags=0xfb0) for mm_recv_desc failed: Operation not permitted, please check shared memory limits by 'ipcs -l'
[1631286059.857310] [comp0806:24165:0]            sys.c:618  UCX  ERROR shmget(size=2097152 flags=0xfb0) for mm_recv_desc failed: Operation not permitted, please check shared memory limits by 'ipcs -l'
[1631286059.884291] [comp0806:24166:0]            sys.c:618  UCX  ERROR shmget(size=2097152 flags=0xfb0) for mm_recv_desc failed: Operation not permitted, please check shared memory limits by 'ipcs -l'
[1631286059.884554] [comp0806:24168:0]            sys.c:618  UCX  ERROR shmget(size=2097152 flags=0xfb0) for mm_recv_desc failed: Operation not permitted, please check shared memory limits by 'ipcs -l'
[1631286059.893340] [comp0806:24167:0]            sys.c:618  UCX  ERROR shmget(size=2097152 flags=0xb80) for ucp_am_bufs failed: Operation not permitted, please check shared memory limits by 'ipcs -l'
[1631286059.893368] [comp0806:24168:0]            sys.c:618  UCX  ERROR shmget(size=2097152 flags=0xb80) for ucp_am_bufs failed: Operation not permitted, please check shared memory limits by 'ipcs -l'
[1631286059.893977] [comp0806:24165:0]            sys.c:618  UCX  ERROR shmget(size=2097152 flags=0xb80) for ucp_am_bufs failed: Operation not permitted, please check shared memory limits by 'ipcs -l'


           ************************************************************
           *        Program running with 4 parallel MPI-processes     *
           *              working on a common directory               *
           ************************************************************
[1631286059.898024] [comp0806:24166:0]            sys.c:618  UCX  ERROR shmget(size=2097152 flags=0xb80) for ucp_am_bufs failed: Operation not permitted, please check shared memory limits by 'ipcs -l'
-------------------------------------------------------------------------------
                                 ORCA SCF
-------------------------------------------------------------------------------

------------
SCF SETTINGS
------------
Hamiltonian:
 Density Functional     Method          .... DFT(GTOs)
 Exchange Functional    Exchange        .... PBE
   PBE kappa parameter   XKappa         ....  0.804000
   PBE mue parameter    XMuePBE         ....  0.219520
 Correlation Functional Correlation     .... PBE
   PBE beta parameter  CBetaPBE         ....  0.066725
 LDA part of GGA corr.  LDAOpt          .... PW91-LDA
 Gradients option       PostSCFGGA      .... off
 Hybrid DFT is turned on
   Fraction HF Exchange ScalHFX         ....  0.250000
   Scaling of DF-GGA-X  ScalDFX         ....  0.750000
   Scaling of DF-GGA-C  ScalDFC         ....  1.000000
   Scaling of DF-LDA-C  ScalLDAC        ....  1.000000
   Perturbative correction              ....  0.000000
   Density functional embedding theory  .... OFF
   NL short-range parameter             ....  6.900000
 RI-approximation to the Coulomb term is turned on
   Number of auxiliary basis functions  .... 340
   RIJ-COSX (HFX calculated with COS-X)).... on


General Settings:
 Integral files         IntName         .... manual_reactants_332_freq
 Hartree-Fock type      HFTyp           .... RHF
 Total Charge           Charge          ....   -1
 Multiplicity           Mult            ....    1
 Number of Electrons    NEL             ....   96
 Basis Dimension        Dim             ....  141
 Nuclear Repulsion      ENuc            ....    475.1308755684 Eh

Convergence Acceleration:
 DIIS                   CNVDIIS         .... on
   Start iteration      DIISMaxIt       ....    12
   Startup error        DIISStart       ....  0.200000
   # of expansion vecs  DIISMaxEq       ....     5
   Bias factor          DIISBfac        ....   1.050
   Max. coefficient     DIISMaxC        ....  10.000
 Newton-Raphson         CNVNR           .... off
 SOSCF                  CNVSOSCF        .... on
   Start iteration      SOSCFMaxIt      ....   150
   Startup grad/error   SOSCFStart      ....  0.003300
 Level Shifting         CNVShift        .... on
   Level shift para.    LevelShift      ....    0.2500
   Turn off err/grad.   ShiftErr        ....    0.0010
 Zerner damping         CNVZerner       .... off
 Static damping         CNVDamp         .... on
   Fraction old density DampFac         ....    0.7000
   Max. Damping (<1)    DampMax         ....    0.9800
   Min. Damping (>=0)   DampMin         ....    0.0000
   Turn off err/grad.   DampErr         ....    0.1000
 Fernandez-Rico         CNVRico         .... off

SCF Procedure:
 Maximum # iterations   MaxIter         ....   250
 SCF integral mode      SCFMode         .... Direct
   Integral package                     .... LIBINT
 Reset frequency        DirectResetFreq ....    20
 Integral Threshold     Thresh          ....  1.000e-10 Eh
 Primitive CutOff       TCut            ....  1.000e-11 Eh

Convergence Tolerance:
 Convergence Check Mode ConvCheckMode   .... Total+1el-Energy
 Convergence forced     ConvForced      .... 0
 Energy Change          TolE            ....  1.000e-06 Eh
 1-El. energy change                    ....  1.000e-03 Eh
 Orbital Gradient       TolG            ....  5.000e-05
 Orbital Rotation angle TolX            ....  5.000e-05
 DIIS Error             TolErr          ....  1.000e-06


Diagonalization of the overlap matrix:
Smallest eigenvalue                        ... 2.607e-03
Time for diagonalization                   ...    0.006 sec
Threshold for overlap eigenvalues          ... 1.000e-08
Number of eigenvalues below threshold      ... 0
Time for construction of square roots      ...    0.002 sec
Total time needed                          ...    0.008 sec

-------------------
DFT GRID GENERATION
-------------------

General Integration Accuracy     IntAcc      ...  4.340
Radial Grid Type                 RadialGrid  ... Gauss-Chebyshev
Angular Grid (max. acc.)         AngularGrid ... Lebedev-110
Angular grid pruning method      GridPruning ... 3 (G Style)
Weight generation scheme         WeightScheme... Becke
Basis function cutoff            BFCut       ...    1.0000e-10
Integration weight cutoff        WCut        ...    1.0000e-14
Grids for H and He will be reduced by one unit

# of grid points (after initial pruning)     ...  16306 (   0.0 sec)
# of grid points (after weights+screening)   ...  15508 (   0.0 sec)
nearest neighbour list constructed           ...    0.0 sec
Grid point re-assignment to atoms done       ...    0.0 sec
Grid point division into batches done        ...    0.0 sec
Reduced shell lists constructed in    0.1 sec

Total number of grid points                  ...    15508
Total number of batches                      ...      248
Average number of points per batch           ...       62
Average number of grid points per atom       ...     1292
Average number of shells per batch           ...    44.06 (69.94%)
Average number of basis functions per batch  ...    94.48 (67.00%)
Average number of large shells per batch     ...    36.06 (81.84%)
Average number of large basis fcns per batch ...    75.37 (79.77%)
Maximum spatial batch extension              ...  15.75, 15.33, 22.78 au
Average spatial batch extension              ...   0.72,  0.73,  0.80 au

Time for grid setup =    0.096 sec

------------------------------
INITIAL GUESS: MODEL POTENTIAL
------------------------------
Loading Hartree-Fock densities                     ... done
Calculating cut-offs                               ... done
Setting up the integral package                    ... done
Initializing the effective Hamiltonian             ... done
Starting the Coulomb interaction                   ... done (   0.0 sec)
Reading the grid                                   ... done
Mapping shells                                     ... done
Starting the XC term evaluation                    ... done (   0.0 sec)
  promolecular density results
     # of electrons  =     95.000238736
     EX              =   -195.912081452
     EC              =     -4.221171252
     EX+EC           =   -200.133252704
Transforming the Hamiltonian                       ... done (   0.0 sec)
Diagonalizing the Hamiltonian                      ... done (   0.0 sec)
Back transforming the eigenvectors                 ... done (   0.0 sec)
Now organizing SCF variables                       ... done
                      ------------------
                      INITIAL GUESS DONE (   0.3 sec)
                      ------------------
--------------------
COSX GRID GENERATION
--------------------

General Integration Accuracy     IntAcc      ...  3.340
Radial Grid Type                 RadialGrid  ... Gauss-Chebyshev
Angular Grid (max. acc.)         AngularGrid ... Lebedev-50
Angular grid pruning method      GridPruning ... 3 (G Style)
Weight generation scheme         WeightScheme... Becke
Basis function cutoff            BFCut       ...    1.0000e-10
Integration weight cutoff        WCut        ...    1.0000e-14
Grids for H and He will be reduced by one unit

# of grid points (after initial pruning)     ...   6064 (   0.0 sec)
# of grid points (after weights+screening)   ...   5752 (   0.0 sec)
nearest neighbour list constructed           ...    0.0 sec
Grid point re-assignment to atoms done       ...    0.0 sec
Grid point division into batches done        ...    0.0 sec
Reduced shell lists constructed in    0.0 sec

Total number of grid points                  ...     5752
Total number of batches                      ...       95
Average number of points per batch           ...       60
Average number of grid points per atom       ...      479
Average number of shells per batch           ...    45.88 (72.83%)
Average number of basis functions per batch  ...    99.32 (70.44%)
Average number of large shells per batch     ...    38.12 (83.09%)
Average number of large basis fcns per batch ...    79.88 (80.43%)
Maximum spatial batch extension              ...  13.37, 14.76, 19.83 au
Average spatial batch extension              ...   0.95,  0.98,  1.08 au

Overlap Fitting                  UseSFitting ... on
Constructing numerical overlap ... done (      0.0 sec)
Inverting numerical overlap    ... done (      0.0 sec)
Obtaining analytic overlap     ... done (      0.0 sec)
Final contraction and storage  ... done (      0.0 sec)


General Integration Accuracy     IntAcc      ...  3.670
Radial Grid Type                 RadialGrid  ... Gauss-Chebyshev
Angular Grid (max. acc.)         AngularGrid ... Lebedev-50
Angular grid pruning method      GridPruning ... 3 (G Style)
Weight generation scheme         WeightScheme... Becke
Basis function cutoff            BFCut       ...    1.0000e-10
Integration weight cutoff        WCut        ...    1.0000e-14
Grids for H and He will be reduced by one unit

# of grid points (after initial pruning)     ...   7582 (   0.0 sec)
# of grid points (after weights+screening)   ...   7171 (   0.0 sec)
nearest neighbour list constructed           ...    0.0 sec
Grid point re-assignment to atoms done       ...    0.0 sec
Grid point division into batches done        ...    0.0 sec
Reduced shell lists constructed in    0.0 sec

Total number of grid points                  ...     7171
Total number of batches                      ...      118
Average number of points per batch           ...       60
Average number of grid points per atom       ...      598
Average number of shells per batch           ...    46.06 (73.12%)
Average number of basis functions per batch  ...    99.48 (70.56%)
Average number of large shells per batch     ...    38.48 (83.54%)
Average number of large basis fcns per batch ...    80.35 (80.77%)
Maximum spatial batch extension              ...  15.02, 15.55, 15.92 au
Average spatial batch extension              ...   0.87,  0.91,  0.94 au

Overlap Fitting                  UseSFitting ... on
Constructing numerical overlap ... done (      0.0 sec)
Inverting numerical overlap    ... done (      0.0 sec)
Obtaining analytic overlap     ... done (      0.0 sec)
Final contraction and storage  ... done (      0.0 sec)


General Integration Accuracy     IntAcc      ...  4.010
Radial Grid Type                 RadialGrid  ... Gauss-Chebyshev
Angular Grid (max. acc.)         AngularGrid ... Lebedev-110
Angular grid pruning method      GridPruning ... 3 (G Style)
Weight generation scheme         WeightScheme... Becke
Basis function cutoff            BFCut       ...    1.0000e-10
Integration weight cutoff        WCut        ...    1.0000e-14
Grids for H and He will be reduced by one unit

# of grid points (after initial pruning)     ...  14244 (   0.0 sec)
# of grid points (after weights+screening)   ...  13575 (   0.0 sec)
nearest neighbour list constructed           ...    0.0 sec
Grid point re-assignment to atoms done       ...    0.0 sec
Grid point division into batches done        ...    0.0 sec
Reduced shell lists constructed in    0.0 sec

Total number of grid points                  ...    13575
Total number of batches                      ...      218
Average number of points per batch           ...       62
Average number of grid points per atom       ...     1131
Average number of shells per batch           ...    44.77 (71.06%)
Average number of basis functions per batch  ...    96.52 (68.45%)
Average number of large shells per batch     ...    36.95 (82.53%)
Average number of large basis fcns per batch ...    77.45 (80.24%)
Maximum spatial batch extension              ...  15.44, 14.25, 16.68 au
Average spatial batch extension              ...   0.72,  0.75,  0.79 au

Overlap Fitting                  UseSFitting ... on
Constructing numerical overlap ... done (      0.0 sec)
Inverting numerical overlap    ... done (      0.0 sec)
Obtaining analytic overlap     ... done (      0.0 sec)
Final contraction and storage  ... done (      0.0 sec)

Time for X-Grid setup             =    0.182 sec

--------------------
CPCM SOLVATION MODEL
--------------------
CPCM parameters:
  Epsilon                                         ...      20.7000
  Refrac                                          ...       1.3590
  Rsolv                                           ...       1.3000
  Surface type                                    ...    GEPOL SES
  Epsilon function type                           ...         CPCM
Radii:
 Radius for C  used is    3.7795 Bohr (=   2.0000 Ang.)
 Radius for Br used is    4.0818 Bohr (=   2.1600 Ang.)
 Radius for H  used is    2.4566 Bohr (=   1.3000 Ang.)
Calculating surface                               ...        done! (  0.1s)
GEPOL surface points                              ...          533
GEPOL Volume                                      ...    1030.9967
GEPOL Surface-area                                ...     597.7568
Calculating surface distance matrix               ...        done! (  0.0s)
Performing Cholesky decomposition & store         ...        done! (  0.0s)
Overall time for CPCM initialization              ...                 0.1s
--------------
SCF ITERATIONS
--------------
ITER       Energy         Delta-E        Max-DP      RMS-DP      [F,P]     Damp
               ***  Starting incremental Fock matrix formation  ***
  0  -5265.4335290312   0.000000000000 0.11328498  0.00225774  0.1558631 0.7000
  1  -5265.4958092317  -0.062280200551 0.08579216  0.00171121  0.0826294 0.7000
                               ***Turning on DIIS***
  2  -5265.5241996191  -0.028390387382 0.16739550  0.00331204  0.0416481 0.0000
  3  -5265.5657662771  -0.041566658028 0.03887791  0.00098676  0.0443174 0.0000
  4  -5265.5754348251  -0.009668547983 0.01894399  0.00033462  0.0086450 0.0000
                      *** Initiating the SOSCF procedure ***
                           *** Shutting down DIIS ***
                      *** Re-Reading the Fockian *** 
                      *** Removing any level shift *** 
ITER      Energy       Delta-E        Grad      Rot      Max-DP    RMS-DP
  5  -5265.57586750  -0.0004326700  0.000666  0.000666  0.002335  0.000087
               *** Restarting incremental Fock matrix formation ***
  6  -5265.57589054  -0.0000230460  0.000329  0.000604  0.001149  0.000052
  7  -5265.57589159  -0.0000010525  0.000230  0.000164  0.000671  0.000015
  8  -5265.57589329  -0.0000016970  0.000022  0.000015  0.000096  0.000002
  9  -5265.57589307   0.0000002250  0.000019  0.000011  0.000040  0.000001
                 **** Energy Check signals convergence ****
              ***Rediagonalizing the Fockian in SOSCF/NRSCF***

               *****************************************************
               *                     SUCCESS                       *
               *           SCF CONVERGED AFTER  10 CYCLES          *
               *****************************************************

Setting up the final grid:

General Integration Accuracy     IntAcc      ...  4.670
Radial Grid Type                 RadialGrid  ... Gauss-Chebyshev
Angular Grid (max. acc.)         AngularGrid ... Lebedev-302
Angular grid pruning method      GridPruning ... 3 (G Style)
Weight generation scheme         WeightScheme... Becke
Basis function cutoff            BFCut       ...    1.0000e-10
Integration weight cutoff        WCut        ...    1.0000e-14
Grids for H and He will be reduced by one unit

# of grid points (after initial pruning)     ...  61626 (   0.0 sec)
# of grid points (after weights+screening)   ...  58013 (   0.0 sec)
nearest neighbour list constructed           ...    0.0 sec
Grid point re-assignment to atoms done       ...    0.0 sec
Grid point division into batches done        ...    0.2 sec
Reduced shell lists constructed in    0.3 sec

Total number of grid points                  ...    58013
Total number of batches                      ...      912
Average number of points per batch           ...       63
Average number of grid points per atom       ...     4834
Average number of shells per batch           ...    42.13 (66.87%)
Average number of basis functions per batch  ...    89.91 (63.76%)
Average number of large shells per batch     ...    34.39 (81.63%)
Average number of large basis fcns per batch ...    71.31 (79.31%)
Maximum spatial batch extension              ...  15.26, 13.49, 15.15 au
Average spatial batch extension              ...   0.51,  0.49,  0.52 au

Final grid set up in    0.4 sec
Final integration                            ... done (   0.1 sec)
Change in XC energy                          ...     0.000274380
Integrated number of electrons               ...    96.000057444
Previous integrated no of electrons          ...    96.002075966
Old exchange energy                            =    -49.362088501 Eh
New exchange energy                            =    -49.362303681 Eh
Exchange energy change after final integration =     -0.000215180 Eh
Total energy after final integration           =  -5265.575834089 Eh
Final COS-X integration done in                =     0.845 sec

----------------
TOTAL SCF ENERGY
----------------

Total Energy       :        -5265.57583409 Eh         -143283.60284 eV

Components:
Nuclear Repulsion  :          475.13087557 Eh           12928.96842 eV
Electronic Energy  :        -5740.70670966 Eh         -156212.57126 eV
One Electron Energy:        -8289.07641423 Eh         -225557.23634 eV
Two Electron Energy:         2548.36970458 Eh           69344.66508 eV
CPCM Dielectric    :           -0.09915902 Eh              -2.69825 eV

Virial components:
Potential Energy   :       -10524.63138733 Eh         -286389.77982 eV
Kinetic Energy     :         5259.05555324 Eh          143106.17698 eV
Virial Ratio       :            2.00123982


DFT components:
N(Alpha)           :       48.000028722105 electrons
N(Beta)            :       48.000028722105 electrons
N(Total)           :       96.000057444210 electrons
E(X)               :     -147.443919227970 Eh       
E(C)               :       -4.271894926732 Eh       
E(XC)              :     -151.715814154702 Eh       
DFET-embed. en.    :        0.000000000000 Eh       
CPCM Solvation Model Properties:
Surface-charge          :            0.97466228
Charge-correction       :           -0.00360064 Eh              -0.09798 eV
Free-energy (cav+disp)  :            0.00390943 Eh               0.10638 eV
Corrected G(solv)       :        -5265.57552529 Eh         -143283.59444 eV

---------------
SCF CONVERGENCE
---------------

  Last Energy change         ...   -2.2371e-07  Tolerance :   1.0000e-06
  Last MAX-Density change    ...    4.4409e-15  Tolerance :   1.0000e-05
  Last RMS-Density change    ...    1.0289e-16  Tolerance :   1.0000e-06
  Last Orbital Gradient      ...    2.2727e-06  Tolerance :   5.0000e-05
  Last Orbital Rotation      ...    4.4377e-06  Tolerance :   5.0000e-05

             **** THE GBW FILE WAS UPDATED (manual_reactants_332_freq.gbw) ****
             **** DENSITY FILE WAS UPDATED (manual_reactants_332_freq.scfp) ****
             **** ENERGY FILE WAS UPDATED (manual_reactants_332_freq.en.tmp) ****
             **** THE GBW FILE WAS UPDATED (manual_reactants_332_freq.gbw) ****
             **** DENSITY FILE WAS UPDATED (manual_reactants_332_freq.scfp) ****
----------------
ORBITAL ENERGIES
----------------

  NO   OCC          E(Eh)            E(eV) 
   0   2.0000    -483.168388    -13147.6802 
   1   2.0000    -483.065138    -13144.8707 
   2   2.0000     -62.604705     -1703.5606 
   3   2.0000     -62.500264     -1700.7187 
   4   2.0000     -56.393816     -1534.5537 
   5   2.0000     -56.391680     -1534.4956 
   6   2.0000     -56.391530     -1534.4916 
   7   2.0000     -56.288229     -1531.6806 
   8   2.0000     -56.288195     -1531.6797 
   9   2.0000     -56.287824     -1531.6696 
  10   2.0000     -10.283031      -279.8155 
  11   2.0000     -10.222539      -278.1694 
  12   2.0000     -10.221680      -278.1461 
  13   2.0000      -8.749945      -238.0981 
  14   2.0000      -8.643749      -235.2084 
  15   2.0000      -6.563768      -178.6092 
  16   2.0000      -6.552335      -178.2981 
  17   2.0000      -6.552293      -178.2970 
  18   2.0000      -6.450093      -175.5160 
  19   2.0000      -6.450056      -175.5149 
  20   2.0000      -6.450011      -175.5137 
  21   2.0000      -2.649474       -72.0959 
  22   2.0000      -2.646221       -72.0073 
  23   2.0000      -2.646140       -72.0051 
  24   2.0000      -2.636928       -71.7545 
  25   2.0000      -2.636918       -71.7542 
  26   2.0000      -2.536961       -69.0342 
  27   2.0000      -2.536938       -69.0336 
  28   2.0000      -2.536920       -69.0331 
  29   2.0000      -2.536883       -69.0321 
  30   2.0000      -2.536875       -69.0319 
  31   2.0000      -0.838986       -22.8300 
  32   2.0000      -0.742406       -20.2019 
  33   2.0000      -0.697895       -18.9907 
  34   2.0000      -0.652701       -17.7609 
  35   2.0000      -0.578523       -15.7424 
  36   2.0000      -0.472454       -12.8561 
  37   2.0000      -0.450010       -12.2454 
  38   2.0000      -0.423713       -11.5298 
  39   2.0000      -0.392427       -10.6785 
  40   2.0000      -0.360575        -9.8117 
  41   2.0000      -0.360218        -9.8020 
  42   2.0000      -0.335793        -9.1374 
  43   2.0000      -0.281458        -7.6589 
  44   2.0000      -0.281273        -7.6538 
  45   2.0000      -0.216347        -5.8871 
  46   2.0000      -0.215861        -5.8739 
  47   2.0000      -0.213863        -5.8195 
  48   0.0000       0.017842         0.4855 
  49   0.0000       0.091431         2.4880 
  50   0.0000       0.124085         3.3765 
  51   0.0000       0.131066         3.5665 
  52   0.0000       0.150240         4.0882 
  53   0.0000       0.163194         4.4407 
  54   0.0000       0.176799         4.8109 
  55   0.0000       0.184625         5.0239 
  56   0.0000       0.213766         5.8169 
  57   0.0000       0.246167         6.6985 
  58   0.0000       0.331629         9.0241 
  59   0.0000       0.383765        10.4428 
  60   0.0000       0.407478        11.0880 
  61   0.0000       0.420359        11.4385 
  62   0.0000       0.432078        11.7575 
  63   0.0000       0.434510        11.8236 
  64   0.0000       0.492834        13.4107 
  65   0.0000       0.539659        14.6849 
  66   0.0000       0.549612        14.9557 
  67   0.0000       0.569543        15.4980 
  68   0.0000       0.580367        15.7926 
  69   0.0000       0.600469        16.3396 
  70   0.0000       0.617134        16.7931 
  71   0.0000       0.623505        16.9664 
  72   0.0000       0.629508        17.1298 
  73   0.0000       0.633488        17.2381 
  74   0.0000       0.634175        17.2568 
  75   0.0000       0.648597        17.6492 
  76   0.0000       0.658388        17.9156 
  77   0.0000       0.672381        18.2964 
  78   0.0000       0.677113        18.4252 
  79   0.0000       0.685752        18.6603 
  80   0.0000       0.689301        18.7568 
  81   0.0000       0.690957        18.8019 
  82   0.0000       0.710442        19.3321 
  83   0.0000       0.711870        19.3710 
  84   0.0000       0.727864        19.8062 
  85   0.0000       0.728856        19.8332 
  86   0.0000       0.762147        20.7391 
  87   0.0000       0.781866        21.2757 
  88   0.0000       0.788249        21.4493 
  89   0.0000       0.806041        21.9335 
  90   0.0000       0.858511        23.3613 
  91   0.0000       0.864451        23.5229 
  92   0.0000       1.046309        28.4715 
  93   0.0000       1.061802        28.8931 
  94   0.0000       1.102762        30.0077 
  95   0.0000       1.165763        31.7220 
  96   0.0000       1.222054        33.2538 
  97   0.0000       1.310692        35.6657 
  98   0.0000       1.515904        41.2499 
  99   0.0000       1.550057        42.1792 
 100   0.0000       1.550796        42.1993 
 101   0.0000       1.554147        42.2905 
 102   0.0000       1.620920        44.1075 
 103   0.0000       1.753980        47.7282 
 104   0.0000       1.763823        47.9961 
 105   0.0000       1.790747        48.7287 
 106   0.0000       1.817744        49.4633 
 107   0.0000       1.831330        49.8330 
 108   0.0000       1.841301        50.1043 
 109   0.0000       1.865419        50.7606 
 110   0.0000       1.884667        51.2844 
 111   0.0000       1.925945        52.4076 
 112   0.0000       1.963931        53.4413 
 113   0.0000       2.032086        55.2959 
 114   0.0000       2.164036        58.8864 
 115   0.0000       2.164868        58.9091 
 116   0.0000       2.262803        61.5740 
 117   0.0000       2.268368        61.7254 
 118   0.0000       2.393279        65.1244 
 119   0.0000       2.408196        65.5303 
 120   0.0000       2.497681        67.9654 
 121   0.0000       2.577546        70.1386 
 122   0.0000       2.601555        70.7919 
 123   0.0000       2.615646        71.1753 
 124   0.0000       2.751351        74.8681 
 125   0.0000       2.865733        77.9806 
 126   0.0000       2.921850        79.5076 
 127   0.0000       2.929726        79.7219 
 128   0.0000       3.007516        81.8387 
 129   0.0000       3.028286        82.4038 
 130   0.0000       3.058277        83.2199 
 131   0.0000       3.492034        95.0231 
 132   0.0000       3.506208        95.4088 
 133   0.0000       3.561133        96.9034 
 134   0.0000       3.561372        96.9099 
 135   0.0000       3.568904        97.1148 
 136   0.0000       3.573241        97.2328 
 137   0.0000       3.576313        97.3164 
 138   0.0000       3.605951        98.1229 
 139   0.0000       3.620123        98.5086 
 140   0.0000       3.828418       104.1766 

                    ********************************
                    * MULLIKEN POPULATION ANALYSIS *
                    ********************************

-----------------------
MULLIKEN ATOMIC CHARGES
-----------------------
   0 C :   -0.034238
   1 C :   -0.221833
   2 C :   -0.029680
   3 Br:   -0.208528
   4 H :    0.059449
   5 H :    0.053897
   6 H :    0.058473
   7 H :    0.092387
   8 H :    0.058397
   9 H :    0.056867
  10 H :    0.052725
  11 Br:   -0.937916
Sum of atomic charges:   -1.0000000

--------------------------------
MULLIKEN REDUCED ORBITAL CHARGES
--------------------------------
  0 C s       :     3.028167  s :     3.028167
      pz      :     1.014537  p :     2.979245
      px      :     0.936135
      py      :     1.028574
      dz2     :     0.004105  d :     0.026825
      dxz     :     0.006216
      dyz     :     0.006268
      dx2y2   :     0.004003
      dxy     :     0.006233
  1 C s       :     3.234788  s :     3.234788
      pz      :     1.010985  p :     2.940622
      px      :     0.968435
      py      :     0.961202
      dz2     :     0.006816  d :     0.046423
      dxz     :     0.008992
      dyz     :     0.010580
      dx2y2   :     0.008713
      dxy     :     0.011322
  2 C s       :     3.026423  s :     3.026423
      pz      :     1.017123  p :     2.976492
      px      :     1.009623
      py      :     0.949746
      dz2     :     0.003079  d :     0.026764
      dxz     :     0.006163
      dyz     :     0.006777
      dx2y2   :     0.004269
      dxy     :     0.006476
  3 Brs       :     7.968738  s :     7.968738
      pz      :     5.770244  p :    17.202221
      px      :     5.744597
      py      :     5.687381
      dz2     :     2.005077  d :    10.037569
      dxz     :     2.008633
      dyz     :     2.008991
      dx2y2   :     2.005069
      dxy     :     2.009798
  4 H s       :     0.916783  s :     0.916783
      pz      :     0.005331  p :     0.023767
      px      :     0.006332
      py      :     0.012105
  5 H s       :     0.922487  s :     0.922487
      pz      :     0.011937  p :     0.023617
      px      :     0.004240
      py      :     0.007440
  6 H s       :     0.917009  s :     0.917009
      pz      :     0.008618  p :     0.024518
      px      :     0.007975
      py      :     0.007925
  7 H s       :     0.886039  s :     0.886039
      pz      :     0.011933  p :     0.021573
      px      :     0.003593
      py      :     0.006047
  8 H s       :     0.917846  s :     0.917846
      pz      :     0.007411  p :     0.023758
      px      :     0.011818
      py      :     0.004529
  9 H s       :     0.918403  s :     0.918403
      pz      :     0.008751  p :     0.024730
      px      :     0.008101
      py      :     0.007878
 10 H s       :     0.923646  s :     0.923646
      pz      :     0.011811  p :     0.023628
      px      :     0.005328
      py      :     0.006488
 11 Brs       :     7.998336  s :     7.998336
      pz      :     5.965873  p :    17.939381
      px      :     5.984201
      py      :     5.989308
      dz2     :     2.000061  d :    10.000199
      dxz     :     2.000075
      dyz     :     2.000030
      dx2y2   :     2.000016
      dxy     :     2.000018


                     *******************************
                     * LOEWDIN POPULATION ANALYSIS *
                     *******************************

----------------------
LOEWDIN ATOMIC CHARGES
----------------------
   0 C :   -0.082288
   1 C :   -0.069321
   2 C :   -0.082221
   3 Br:   -0.057531
   4 H :    0.034235
   5 H :    0.032944
   6 H :    0.036595
   7 H :    0.032722
   8 H :    0.034203
   9 H :    0.034941
  10 H :    0.032135
  11 Br:   -0.946413

-------------------------------
LOEWDIN REDUCED ORBITAL CHARGES
-------------------------------
  0 C s       :     2.848942  s :     2.848942
      pz      :     1.059747  p :     3.162197
      px      :     1.027493
      py      :     1.074957
      dz2     :     0.010310  d :     0.071150
      dxz     :     0.017139
      dyz     :     0.016115
      dx2y2   :     0.011267
      dxy     :     0.016318
  1 C s       :     2.912527  s :     2.912527
      pz      :     1.030625  p :     3.054340
      px      :     1.011795
      py      :     1.011920
      dz2     :     0.015073  d :     0.102453
      dxz     :     0.020473
      dyz     :     0.022997
      dx2y2   :     0.018608
      dxy     :     0.025302
  2 C s       :     2.848992  s :     2.848992
      pz      :     1.071610  p :     3.162149
      px      :     1.055441
      py      :     1.035097
      dz2     :     0.008260  d :     0.071081
      dxz     :     0.016141
      dyz     :     0.017529
      dx2y2   :     0.011192
      dxy     :     0.017959
  3 Brs       :     7.836652  s :     7.836652
      pz      :     5.762126  p :    17.171697
      px      :     5.730870
      py      :     5.678700
      dz2     :     2.006324  d :    10.049182
      dxz     :     2.011003
      dyz     :     2.011849
      dx2y2   :     2.006475
      dxy     :     2.013530
  4 H s       :     0.898972  s :     0.898972
      pz      :     0.014086  p :     0.066793
      px      :     0.019192
      py      :     0.033514
  5 H s       :     0.900403  s :     0.900403
      pz      :     0.033401  p :     0.066652
      px      :     0.012841
      py      :     0.020410
  6 H s       :     0.894972  s :     0.894972
      pz      :     0.023465  p :     0.068433
      px      :     0.023457
      py      :     0.021511
  7 H s       :     0.895132  s :     0.895132
      pz      :     0.037995  p :     0.072147
      px      :     0.014136
      py      :     0.020016
  8 H s       :     0.899073  s :     0.899073
      pz      :     0.020131  p :     0.066725
      px      :     0.033088
      py      :     0.013505
  9 H s       :     0.896120  s :     0.896120
      pz      :     0.023359  p :     0.068939
      px      :     0.022301
      py      :     0.023280
 10 H s       :     0.901188  s :     0.901188
      pz      :     0.032710  p :     0.066678
      px      :     0.014235
      py      :     0.019732
 11 Brs       :     7.998020  s :     7.998020
      pz      :     5.970104  p :    17.948190
      px      :     5.986293
      py      :     5.991793
      dz2     :     2.000064  d :    10.000203
      dxz     :     2.000070
      dyz     :     2.000032
      dx2y2   :     2.000015
      dxy     :     2.000022


                      *****************************
                      * MAYER POPULATION ANALYSIS *
                      *****************************

  NA   - Mulliken gross atomic population
  ZA   - Total nuclear charge
  QA   - Mulliken gross atomic charge
  VA   - Mayer's total valence
  BVA  - Mayer's bonded valence
  FA   - Mayer's free valence

  ATOM       NA         ZA         QA         VA         BVA        FA
  0 C      6.0342     6.0000    -0.0342     3.8823     3.8823    -0.0000
  1 C      6.2218     6.0000    -0.2218     4.0344     4.0344     0.0000
  2 C      6.0297     6.0000    -0.0297     3.8771     3.8771    -0.0000
  3 Br    35.2085    35.0000    -0.2085     0.9970     0.9970     0.0000
  4 H      0.9406     1.0000     0.0594     0.9908     0.9908     0.0000
  5 H      0.9461     1.0000     0.0539     0.9948     0.9948    -0.0000
  6 H      0.9415     1.0000     0.0585     1.0237     1.0237     0.0000
  7 H      0.9076     1.0000     0.0924     0.9857     0.9857    -0.0000
  8 H      0.9416     1.0000     0.0584     0.9906     0.9906     0.0000
  9 H      0.9431     1.0000     0.0569     1.0292     1.0292     0.0000
 10 H      0.9473     1.0000     0.0527     0.9948     0.9948    -0.0000
 11 Br    35.9379    35.0000    -0.9379     0.1257     0.1257    -0.0000

  Mayer bond orders larger than 0.100000
B(  0-C ,  1-C ) :   1.0475 B(  0-C ,  4-H ) :   0.9640 B(  0-C ,  5-H ) :   0.9648 
B(  0-C ,  6-H ) :   0.9470 B(  1-C ,  2-C ) :   1.0432 B(  1-C ,  3-Br) :   0.9601 
B(  1-C ,  7-H ) :   0.9253 B(  2-C ,  8-H ) :   0.9652 B(  2-C ,  9-H ) :   0.9461 
B(  2-C , 10-H ) :   0.9633 


------------------
HIRSHFELD ANALYSIS
------------------

Total integrated alpha density =     48.001037982
Total integrated beta density  =     48.001037982

  ATOM     CHARGE      SPIN    
   0 C   -0.080342    0.000000
   1 C    0.048370    0.000000
   2 C   -0.081187    0.000000
   3 Br  -0.179084    0.000000
   4 H    0.031109    0.000000
   5 H    0.029855    0.000000
   6 H    0.028007    0.000000
   7 H    0.032670    0.000000
   8 H    0.030921    0.000000
   9 H    0.025792    0.000000
  10 H    0.028961    0.000000
  11 Br  -0.917147    0.000000

  TOTAL  -1.002076    0.000000

-------
TIMINGS
-------

Total SCF time: 0 days 0 hours 0 min 11 sec 

Total time                  ....      11.236 sec
Sum of individual times     ....      10.956 sec  ( 97.5%)

Fock matrix formation       ....      10.085 sec  ( 89.8%)
  Split-RI-J                ....       1.522 sec  ( 15.1% of F)
  Chain of spheres X        ....       4.956 sec  ( 49.1% of F)
  COS-X 1 center corr.      ....       0.000 sec  (  0.0% of F)
  XC integration            ....       0.561 sec  (  5.6% of F)
    Basis function eval.    ....       0.220 sec  ( 39.3% of XC)
    Density eval.           ....       0.101 sec  ( 18.1% of XC)
    XC-Functional eval.     ....       0.055 sec  (  9.7% of XC)
    XC-Potential eval.      ....       0.139 sec  ( 24.8% of XC)
Diagonalization             ....       0.018 sec  (  0.2%)
Density matrix formation    ....       0.003 sec  (  0.0%)
Population analysis         ....       0.040 sec  (  0.4%)
Initial guess               ....       0.157 sec  (  1.4%)
Orbital Transformation      ....       0.000 sec  (  0.0%)
Orbital Orthonormalization  ....       0.000 sec  (  0.0%)
DIIS solution               ....       0.005 sec  (  0.0%)
SOSCF solution              ....       0.008 sec  (  0.1%)
Grid generation             ....       0.641 sec  (  5.7%)


-------------------------------------------------------------------------------
                          DFT DISPERSION CORRECTION                            
                                                                               
                              DFTD3 V3.1  Rev 1                                
                          USING Becke-Johnson damping                          
-------------------------------------------------------------------------------
The PBE0 functional is recognized
Active option DFTDOPT                   ...         4   

molecular C6(AA) [au] = 2599.158204 


            DFT-D V3
 parameters
 s6 scaling factor         :     1.0000 
 a1 scaling factor         :     0.4145 
 s8 scaling factor         :     1.2177 
 a2 scaling factor         :     4.8593 
 ad hoc parameters k1-k3   :    16.0000     1.3333    -4.0000 

 Edisp/kcal,au: -5.714597103675  -0.009106789189 
 E6   /kcal   :  -3.449116710 
 E8   /kcal   :  -2.265480394 
 % E8         :  39.643746585 

-------------------------   ----------------
Dispersion correction           -0.009106789
-------------------------   ----------------


-------------------------   --------------------
FINAL SINGLE POINT ENERGY     -5265.584940878503
-------------------------   --------------------


                            ***************************************
                            *     ORCA property calculations      *
                            ***************************************

                                    ---------------------
                                    Active property flags
                                    ---------------------
   (+) Dipole Moment


------------------------------------------------------------------------------
                       ORCA ELECTRIC PROPERTIES CALCULATION
------------------------------------------------------------------------------

Dipole Moment Calculation                       ... on
Quadrupole Moment Calculation                   ... off
Polarizability Calculation                      ... off
GBWName                                         ... manual_reactants_332_freq.gbw
Electron density file                           ... manual_reactants_332_freq.scfp
The origin for moment calculation is the CENTER OF MASS  = ( 0.922425, -0.631832  1.379727)

-------------
DIPOLE MOMENT
-------------
                                X             Y             Z
Electronic contribution:     -0.61445       7.67850       7.30585
Nuclear contribution   :     -1.60764      -6.41084     -10.96365
                        -----------------------------------------
Total Dipole Moment    :     -2.22208       1.26766      -3.65779
                        -----------------------------------------
Magnitude (a.u.)       :      4.46364
Magnitude (Debye)      :     11.34567



--------------------
Rotational spectrum 
--------------------
 
Rotational constants in cm-1:     0.157075     0.011641     0.011600 
Rotational constants in MHz :  4708.985442   348.985849   347.761557 

 Dipole components along the rotational axes: 
x,y,z [a.u.] :    -4.416491    -0.367290     0.532732 
x,y,z [Debye]:   -11.225827    -0.933576     1.354098 

 
[1631286072.303392] [comp0806:24204:0]            sys.c:618  UCX  ERROR shmget(size=2097152 flags=0xfb0) for mm_recv_desc failed: Operation not permitted, please check shared memory limits by 'ipcs -l'
[1631286072.307350] [comp0806:24202:0]            sys.c:618  UCX  ERROR shmget(size=2097152 flags=0xfb0) for mm_recv_desc failed: Operation not permitted, please check shared memory limits by 'ipcs -l'
[1631286072.320724] [comp0806:24203:0]            sys.c:618  UCX  ERROR shmget(size=2097152 flags=0xfb0) for mm_recv_desc failed: Operation not permitted, please check shared memory limits by 'ipcs -l'
[1631286072.334162] [comp0806:24205:0]            sys.c:618  UCX  ERROR shmget(size=2097152 flags=0xfb0) for mm_recv_desc failed: Operation not permitted, please check shared memory limits by 'ipcs -l'
[1631286072.358481] [comp0806:24202:0]            sys.c:618  UCX  ERROR shmget(size=2097152 flags=0xb80) for ucp_am_bufs failed: Operation not permitted, please check shared memory limits by 'ipcs -l'
[1631286072.358873] [comp0806:24205:0]            sys.c:618  UCX  ERROR shmget(size=2097152 flags=0xb80) for ucp_am_bufs failed: Operation not permitted, please check shared memory limits by 'ipcs -l'
[1631286072.359496] [comp0806:24204:0]            sys.c:618  UCX  ERROR shmget(size=2097152 flags=0xb80) for ucp_am_bufs failed: Operation not permitted, please check shared memory limits by 'ipcs -l'


           ************************************************************
           *        Program running with 4 parallel MPI-processes     *
           *              working on a common directory               *
           ************************************************************
[1631286072.378244] [comp0806:24203:0]            sys.c:618  UCX  ERROR shmget(size=2097152 flags=0xb80) for ucp_am_bufs failed: Operation not permitted, please check shared memory limits by 'ipcs -l'

-------------------------------------------------------------------------------
                               ORCA SCF HESSIAN
-------------------------------------------------------------------------------

Hessian of the Kohn-Sham DFT energy:
Kohn-Sham wavefunction type                      ... RKS
Hartree-Fock exchange scaling                    ...    0.250
Number of operators                              ...    1
Number of atoms                                  ...   12
Basis set dimensions                             ...  141
Integral neglect threshold                       ... 1.0e-10
Integral primitive cutoff                        ... 1.0e-11

Setting up DFT Hessian calculations              ... 
Electron density on the grid                     ... found on disk
Electron density on the final grid               ... found on disk
Building xc-kernel on the grid                   ... done   (      0.0 sec)
Building xc-kernel on the final grid             ... done   (      0.0 sec)
                                                     done   (      0.1 sec)

Nuclear repulsion Hessian                        ... done   (      0.0 sec)

----------------------------------------------
Forming right-hand sides of CP-SCF equations     ...
----------------------------------------------
One electron integral derivatives                ... done   (      5.0 sec)
Transforming the overlap derivative matrices     ... done   (      0.0 sec)
Adding tr(S(x)F(y) C-PCM term to the hessian     ... done   (      0.8 sec)
Making the Q(x) pseudodensities                  ... done   (      0.0 sec)
Adding the E*S(x)*S(y) terms to the Hessian      ... done   (      0.0 sec)
Calculating energy weighted overlap derivatives  ... done   (      0.0 sec)
Two electron integral derivatives (RI)           ... done   (      2.5 sec)
Exchange-correlation integral derivatives        ... done   (      5.2 sec)
tr(F(y)Q(x)) contribution to the Hessian         ... done   (      0.0 sec)
Response fock operator R(S(x)) (RIJCOSX)         ... done   (      3.4 sec)
XC Response fock operator R(S(x))                ... done   (      1.8 sec)
tr(F(y)S(x)) contribution to the Hessian         ... done   (      0.0 sec)
Transforming and finalizing RHSs                 ... done   (      0.0 sec)

----------------------------------------------
Solving the CP-SCF equations (RIJCOSX)           ...
----------------------------------------------
     CP-SCF ITERATION   0: 
     CP-SCF ITERATION   1:      0.000779240209
     CP-SCF ITERATION   2:      0.000055798652
     CP-SCF ITERATION   3:      0.000005508706
     CP-SCF ITERATION   4:      0.000000997631

                                                 ... done   (     14.0 sec)
Forming perturbed density Hessian contributions  ... done   (      0.0 sec)
Calculating [Q*(d^2 A/dXdY)*Q  ] C-PCM term      ... done   (      0.0 sec)
Calculating [d^2(V_N)/(dXdY)*Q ] C-PCM term      ... done   (      0.0 sec)
Calculating [d^2(V_el)/(dXdY)*Q] C-PCM term      ... done   (      0.6 sec)
Calculating C-PCM term that depends on dQ/dX     ... done   (      0.0 sec)
2nd integral derivative contribs (RI)            ... done   (     12.4 sec)
Exchange-correlation Hessian                     ... done   (      5.6 sec)
Dispersion correction in the Hessian             ... done   (      0.6 sec)
Dipol derivatives                                ... done   (      0.2 sec)

Total SCF Hessian time: 0 days 0 hours 0 min 54 sec 

Writing the Hessian file to the disk             ... done


Maximum memory used throughout the entire calculation: 138.3 MB

-----------------------
VIBRATIONAL FREQUENCIES
-----------------------

Scaling factor for frequencies =  1.000000000  (already applied!)

   0:         0.00 cm**-1
   1:         0.00 cm**-1
   2:         0.00 cm**-1
   3:         0.00 cm**-1
   4:         0.00 cm**-1
   5:         0.00 cm**-1
   6:       -29.98 cm**-1 ***imaginary mode***
   7:        36.89 cm**-1
   8:        44.74 cm**-1
   9:       248.62 cm**-1
  10:       260.92 cm**-1
  11:       290.23 cm**-1
  12:       306.45 cm**-1
  13:       404.29 cm**-1
  14:       532.85 cm**-1
  15:       906.26 cm**-1
  16:       932.24 cm**-1
  17:       944.93 cm**-1
  18:      1040.55 cm**-1
  19:      1159.73 cm**-1
  20:      1165.46 cm**-1
  21:      1222.87 cm**-1
  22:      1336.26 cm**-1
  23:      1379.97 cm**-1
  24:      1385.32 cm**-1
  25:      1433.96 cm**-1
  26:      1440.51 cm**-1
  27:      1445.35 cm**-1
  28:      1457.09 cm**-1
  29:      3051.41 cm**-1
  30:      3053.40 cm**-1
  31:      3139.52 cm**-1
  32:      3150.65 cm**-1
  33:      3155.47 cm**-1
  34:      3167.85 cm**-1
  35:      3170.46 cm**-1


------------
NORMAL MODES
------------

These modes are the Cartesian displacements weighted by the diagonal matrix
M(i,i)=1/sqrt(m[i]) where m[i] is the mass of the displaced atom
Thus, these vectors are normalized but *not* orthogonal

                  0          1          2          3          4          5    
      0       0.000000   0.000000   0.000000   0.000000   0.000000   0.000000
      1       0.000000   0.000000   0.000000   0.000000   0.000000   0.000000
      2       0.000000   0.000000   0.000000   0.000000   0.000000   0.000000
      3       0.000000   0.000000   0.000000   0.000000   0.000000   0.000000
      4       0.000000   0.000000   0.000000   0.000000   0.000000   0.000000
      5       0.000000   0.000000   0.000000   0.000000   0.000000   0.000000
      6       0.000000   0.000000   0.000000   0.000000   0.000000   0.000000
      7       0.000000   0.000000   0.000000   0.000000   0.000000   0.000000
      8       0.000000   0.000000   0.000000   0.000000   0.000000   0.000000
      9       0.000000   0.000000   0.000000   0.000000   0.000000   0.000000
     10       0.000000   0.000000   0.000000   0.000000   0.000000   0.000000
     11       0.000000   0.000000   0.000000   0.000000   0.000000   0.000000
     12       0.000000   0.000000   0.000000   0.000000   0.000000   0.000000
     13       0.000000   0.000000   0.000000   0.000000   0.000000   0.000000
     14       0.000000   0.000000   0.000000   0.000000   0.000000   0.000000
     15       0.000000   0.000000   0.000000   0.000000   0.000000   0.000000
     16       0.000000   0.000000   0.000000   0.000000   0.000000   0.000000
     17       0.000000   0.000000   0.000000   0.000000   0.000000   0.000000
     18       0.000000   0.000000   0.000000   0.000000   0.000000   0.000000
     19       0.000000   0.000000   0.000000   0.000000   0.000000   0.000000
     20       0.000000   0.000000   0.000000   0.000000   0.000000   0.000000
     21       0.000000   0.000000   0.000000   0.000000   0.000000   0.000000
     22       0.000000   0.000000   0.000000   0.000000   0.000000   0.000000
     23       0.000000   0.000000   0.000000   0.000000   0.000000   0.000000
     24       0.000000   0.000000   0.000000   0.000000   0.000000   0.000000
     25       0.000000   0.000000   0.000000   0.000000   0.000000   0.000000
     26       0.000000   0.000000   0.000000   0.000000   0.000000   0.000000
     27       0.000000   0.000000   0.000000   0.000000   0.000000   0.000000
     28       0.000000   0.000000   0.000000   0.000000   0.000000   0.000000
     29       0.000000   0.000000   0.000000   0.000000   0.000000   0.000000
     30       0.000000   0.000000   0.000000   0.000000   0.000000   0.000000
     31       0.000000   0.000000   0.000000   0.000000   0.000000   0.000000
     32       0.000000   0.000000   0.000000   0.000000   0.000000   0.000000
     33       0.000000   0.000000   0.000000   0.000000   0.000000   0.000000
     34       0.000000   0.000000   0.000000   0.000000   0.000000   0.000000
     35       0.000000   0.000000   0.000000   0.000000   0.000000   0.000000
                  6          7          8          9         10         11    
      0       0.014041   0.007647  -0.096448   0.037491   0.033267  -0.164584
      1       0.161270  -0.005951  -0.032322  -0.015621  -0.104637   0.094805
      2       0.217726   0.317040  -0.045789   0.029995   0.033116  -0.029920
      3      -0.051382  -0.117929  -0.146192   0.019731   0.007324  -0.133124
      4       0.182816  -0.060011  -0.080296   0.011886  -0.030674  -0.070939
      5       0.098005   0.119488  -0.113941  -0.006734  -0.034381   0.067564
      6       0.002309  -0.159140  -0.202757  -0.018099   0.070295   0.069184
      7       0.173491  -0.084078  -0.093549   0.029120  -0.062768  -0.199087
      8       0.200513  -0.084782  -0.311097  -0.034578  -0.005427   0.118861
      9      -0.052951   0.045046  -0.033124  -0.006192  -0.021757   0.037520
     10      -0.009442  -0.006988   0.066283  -0.003737   0.037230   0.030801
     11      -0.129331   0.009479  -0.060090   0.001765  -0.001344  -0.026906
     12      -0.020901   0.033632  -0.057111  -0.110633  -0.077945  -0.379863
     13       0.158433   0.014752  -0.017514  -0.014954  -0.136341   0.179527
     14       0.135132   0.447360   0.091207  -0.274318  -0.312776  -0.158703
     15       0.106735   0.168285  -0.040046   0.108226   0.106193  -0.186874
     16       0.033548   0.035047   0.069487  -0.340467  -0.484061   0.017645
     17       0.275956   0.259137  -0.118773   0.212189   0.248181   0.020852
     18      -0.000756  -0.093301  -0.154632   0.140091   0.102162   0.037241
     19       0.278817  -0.020974  -0.113320   0.293522   0.218826   0.249337
     20       0.342345   0.405069  -0.061581   0.212862   0.264767  -0.092861
     21      -0.148592  -0.270152  -0.198994   0.019513  -0.013160  -0.149926
     22       0.315686  -0.112036  -0.185506   0.013408  -0.003464  -0.068969
     23       0.038314   0.184508  -0.037565  -0.007873  -0.047169   0.069678
     24      -0.056040  -0.245606  -0.229998   0.187645  -0.098536   0.171047
     25       0.187814  -0.126335  -0.133272   0.009351  -0.095523  -0.404617
     26       0.097072  -0.210742  -0.339778   0.316708  -0.273723   0.377008
     27       0.000364  -0.251271  -0.266551   0.095152   0.018080   0.339380
     28       0.301651  -0.127095  -0.200903  -0.210413   0.149349  -0.137720
     29       0.337398  -0.039344  -0.360128  -0.397705   0.270067  -0.080083
     30       0.108907  -0.015067  -0.162168  -0.381174   0.382524  -0.054492
     31       0.034717  -0.025125   0.024850   0.288899  -0.277289  -0.181127
     32       0.250480  -0.160923  -0.391524  -0.080684   0.029082   0.144871
     33       0.058347   0.003951   0.114076  -0.000431  -0.000202  -0.000347
     34      -0.084898   0.034107  -0.028274  -0.000575   0.000475  -0.000097
     35       0.033097  -0.073522   0.146235   0.000174   0.000099  -0.000162
                 12         13         14         15         16         17    
      0      -0.063719  -0.152176   0.059218  -0.190292  -0.040856   0.068842
      1       0.120788  -0.072436  -0.005522  -0.028616  -0.034473  -0.095546
      2      -0.081243   0.026534  -0.028977   0.071847  -0.050779   0.021115
      3      -0.031851  -0.016264   0.216107   0.074184  -0.003325  -0.054665
      4       0.030035   0.176224  -0.130902  -0.178022   0.004985  -0.023681
      5       0.007641   0.130089   0.306659  -0.013583  -0.000946   0.027070
      6      -0.102655   0.118263  -0.038305   0.133251  -0.008711  -0.053691
      7       0.062896   0.055056  -0.050220   0.128447   0.005948   0.104098
      8      -0.039671  -0.110445   0.019581  -0.083043   0.079800  -0.028633
      9       0.037757   0.009106  -0.032606  -0.002285   0.001292  -0.002044
     10      -0.041257  -0.018772   0.028688   0.001526   0.000422  -0.001062
     11       0.023089   0.000987  -0.037876  -0.003511  -0.000272   0.000968
     12      -0.346970   0.048966  -0.128717  -0.451959  -0.137765  -0.331233
     13       0.190942  -0.237824   0.062143   0.183897   0.108874   0.143107
     14      -0.408455  -0.164867  -0.162692   0.346689   0.273794   0.060413
     15      -0.075017  -0.472425  -0.244148   0.086358   0.425885   0.048880
     16      -0.152371  -0.117734   0.060763   0.045642  -0.010313   0.157976
     17       0.086075   0.118826  -0.005611  -0.020928  -0.156496  -0.131277
     18       0.196671  -0.209001   0.364649  -0.114202  -0.093261   0.459431
     19       0.451862  -0.204007  -0.004800   0.149796   0.153659   0.016337
     20      -0.039708  -0.039985  -0.335119   0.161013   0.182651  -0.282062
     21      -0.013406  -0.006506   0.181437   0.164839   0.344277  -0.059125
     22      -0.002199   0.161973  -0.081440  -0.266326   0.185985  -0.037612
     23       0.024586   0.136982   0.283957   0.016056  -0.188085   0.036796
     24      -0.248317   0.012636  -0.123909   0.262311  -0.200460  -0.056463
     25       0.154857  -0.256265   0.056687   0.487363  -0.291202  -0.341150
     26      -0.320869  -0.156092  -0.171121  -0.034577  -0.115434   0.149620
     27      -0.288673   0.177976  -0.347460   0.054605  -0.062534   0.373026
     28       0.121745  -0.006255  -0.336894   0.185665  -0.226928   0.385376
     29       0.204242  -0.235691   0.026312   0.054991  -0.117972  -0.141852
     30       0.125697   0.324186   0.056201  -0.035993   0.261233   0.194178
     31      -0.032322   0.247017   0.208702   0.030835   0.330188  -0.061812
     32      -0.050724  -0.283154  -0.157665   0.031401  -0.192906  -0.000560
     33       0.000242   0.000004   0.000028   0.000137  -0.000120   0.000053
     34      -0.000112   0.000106  -0.000191  -0.000078  -0.000041   0.000028
     35       0.000308  -0.000056  -0.000226   0.000239   0.000019  -0.000010
                 18         19         20         21         22         23    
      0       0.016754  -0.062699  -0.017018   0.023962   0.012449   0.097085
      1      -0.041545  -0.023001   0.119664   0.025049  -0.045114  -0.031500
      2       0.081879   0.103994   0.037015   0.072482  -0.046096  -0.049814
      3      -0.035636   0.173967   0.102958  -0.046551   0.095464  -0.008925
      4      -0.017764   0.125025  -0.179170   0.009520   0.045522   0.012103
      5      -0.087507  -0.079886  -0.064723  -0.100838  -0.047642   0.009814
      6       0.074347  -0.086202  -0.080207   0.021207   0.008271  -0.038226
      7      -0.013879  -0.094424   0.078983   0.020756   0.054984  -0.088303
      8       0.047041  -0.042287   0.039253   0.072535   0.035712   0.014941
      9       0.001590  -0.001689   0.000978  -0.002589  -0.000281  -0.000040
     10       0.001946  -0.000749  -0.000157   0.000988  -0.000164   0.000042
     11       0.005047   0.000372   0.002709  -0.004088   0.000206  -0.000110
     12      -0.268114  -0.327857   0.207124  -0.012356  -0.210575  -0.278609
     13       0.079186   0.119130  -0.070653  -0.021086   0.134027   0.212876
     14      -0.060298   0.087107  -0.150751  -0.179509   0.171973   0.089953
     15      -0.246154  -0.274664  -0.370275  -0.233391  -0.174291  -0.416619
     16       0.158991   0.167342  -0.110204   0.079722   0.064064   0.099848
     17       0.009116   0.039696   0.248897   0.085175  -0.064366  -0.019151
     18       0.295560   0.102822  -0.278841   0.064634  -0.147271  -0.273809
     19      -0.081246   0.039528  -0.153783  -0.096634   0.125155   0.036011
     20      -0.252525  -0.017922   0.054413  -0.091410   0.266453   0.384295
     21      -0.334413   0.551973  -0.121181   0.449672  -0.579319   0.022422
     22       0.399533   0.220843   0.243871  -0.689268  -0.261716   0.007472
     23      -0.292517  -0.218082  -0.292936   0.232711   0.288164   0.011542
     24      -0.009815  -0.025789  -0.145669  -0.121362  -0.108972   0.031447
     25       0.197375  -0.199609  -0.330389  -0.078428  -0.278317   0.293817
     26      -0.184254   0.115069   0.083217  -0.119915  -0.010363  -0.035212
     27      -0.210969  -0.019146   0.235002  -0.025405  -0.169965   0.291845
     28      -0.307492   0.025320   0.117509  -0.140008  -0.267804   0.304718
     29       0.005009   0.027011  -0.220084  -0.059345  -0.120738   0.098982
     30      -0.001583  -0.166094   0.330893   0.096669   0.033337   0.026391
     31       0.264139  -0.400101   0.077223   0.217353  -0.159473   0.322115
     32      -0.098634   0.152979  -0.080837  -0.071503   0.143850  -0.238494
     33      -0.000145  -0.000076  -0.000036   0.000041  -0.000065   0.000065
     34       0.000093  -0.000046   0.000086  -0.000116  -0.000038   0.000039
     35      -0.000245   0.000016   0.000073   0.000018   0.000001   0.000194
                 24         25         26         27         28         29    
      0      -0.113356   0.006324   0.007926   0.025581  -0.001157   0.026059
      1      -0.008783  -0.026551  -0.011569   0.028172  -0.003334  -0.011186
      2       0.031506   0.022257  -0.033562  -0.006738   0.033160  -0.010907
      3       0.112375  -0.024390  -0.041913  -0.001013   0.022216  -0.001907
      4       0.052487  -0.006622  -0.016070   0.036641  -0.014480  -0.001077
      5      -0.056659   0.014459   0.022501   0.009989   0.024950   0.000844
      6      -0.074299  -0.037098   0.011712  -0.029144   0.025000   0.012791
      7      -0.091614   0.011170   0.019834  -0.009604   0.006434   0.038014
      8       0.061341  -0.003961   0.025996   0.021064   0.020127  -0.008717
      9      -0.000418   0.000152   0.000157  -0.000048  -0.000018   0.000001
     10      -0.000215   0.000046   0.000032  -0.000166  -0.000013  -0.000007
     11       0.000251  -0.000083  -0.000097  -0.000161  -0.000023   0.000002
     12       0.237997   0.035186   0.252471  -0.327705  -0.149672  -0.134993
     13      -0.196969  -0.131576  -0.050794   0.229316  -0.051212  -0.253600
     14       0.040759  -0.343168   0.315794   0.049433  -0.460846   0.064450
     15       0.270677   0.012907  -0.316424   0.205514   0.245608   0.064616
     16       0.028760   0.400870  -0.038511  -0.345722   0.278307   0.175595
     17      -0.068885  -0.241843   0.059460   0.176148  -0.194609   0.288685
     18       0.282313  -0.056180   0.205875  -0.187028  -0.215862  -0.230345
     19       0.182714   0.138259   0.307750  -0.437321  -0.140065   0.211442
     20      -0.189485   0.231032   0.070028  -0.222111   0.117022  -0.229924
     21      -0.362351   0.068870   0.153583  -0.001512  -0.035216   0.002042
     22      -0.163016   0.033453   0.068796  -0.013249   0.055914   0.001947
     23       0.179358  -0.029701  -0.071555   0.047610  -0.002342   0.000119
     24      -0.056978   0.183417  -0.174603   0.007278  -0.255480  -0.326201
     25       0.320636   0.296565   0.192598   0.317694  -0.067255   0.092097
     26      -0.096444   0.221610  -0.368824  -0.073337  -0.412081   0.196913
     27       0.386223  -0.062171   0.249494   0.146203   0.250602   0.294535
     28       0.176057  -0.229164  -0.137416  -0.169668   0.079868  -0.310481
     29      -0.114109  -0.225054  -0.382337  -0.319661  -0.132397   0.296820
     30       0.169151   0.468658  -0.110830   0.218736  -0.387629  -0.109926
     31       0.238556  -0.246888  -0.249279  -0.225660  -0.020619  -0.223517
     32      -0.201937   0.003053   0.207299   0.070629   0.148868  -0.393384
     33       0.000039  -0.000068  -0.000083  -0.000040   0.000003   0.000000
     34       0.000015  -0.000037  -0.000033  -0.000001   0.000021   0.000003
     35      -0.000005   0.000005  -0.000002  -0.000072   0.000075  -0.000001
                 30         31         32         33         34         35    
      0       0.035082   0.017153   0.024198   0.017994   0.022483   0.024019
      1      -0.015193   0.007912  -0.014325  -0.030011   0.063866   0.054407
      2      -0.015664   0.029917   0.056281   0.052162   0.007277   0.013927
      3      -0.000427  -0.011799   0.000302   0.007316   0.000002   0.004672
      4       0.001296  -0.039032  -0.000245   0.016702   0.000098   0.016787
      5       0.001206  -0.059430  -0.001333   0.029952   0.000049   0.024721
      6      -0.010003   0.010037  -0.045841   0.046623   0.038901  -0.033351
      7      -0.028643   0.003448   0.010434  -0.016973  -0.030360   0.027657
      8       0.006062   0.032770  -0.050764   0.028206  -0.042330   0.046702
      9      -0.000016  -0.000013   0.000001  -0.000085  -0.000020  -0.000006
     10       0.000017   0.000081  -0.000007   0.000061  -0.000006  -0.000036
     11      -0.000017   0.000047   0.000010  -0.000118   0.000010  -0.000040
     12      -0.183251  -0.031562   0.074375   0.142166  -0.286103  -0.244438
     13      -0.339201  -0.065428   0.126895   0.252589  -0.517892  -0.441771
     14       0.087522   0.021790  -0.025722  -0.061692   0.140408   0.120429
     15       0.085834  -0.052365  -0.075874  -0.054435  -0.063452  -0.064298
     16       0.239758  -0.150490  -0.223963  -0.170245  -0.179240  -0.190742
     17       0.394903  -0.246129  -0.359115  -0.268705  -0.307703  -0.325734
     18      -0.305301  -0.130223  -0.293618  -0.308603   0.083375   0.031895
     19       0.280576   0.124986   0.270713   0.279219  -0.066170  -0.020449
     20      -0.304559  -0.128932  -0.285552  -0.296809   0.080867   0.031551
     21      -0.000722   0.148155   0.004129  -0.071504   0.000738  -0.058727
     22      -0.006770   0.445537   0.008159  -0.211427   0.000063  -0.181028
     23      -0.008346   0.705248   0.010622  -0.337566  -0.001116  -0.283777
     24       0.243173   0.072432   0.134787  -0.241063  -0.487554   0.460592
     25      -0.066620  -0.020379  -0.036256   0.064112   0.127039  -0.119438
     26      -0.146582  -0.036656  -0.092615   0.150903   0.290194  -0.273861
     27      -0.216387  -0.120316   0.302376  -0.256075  -0.065477   0.031170
     28       0.228363   0.128048  -0.327571   0.280641   0.070688  -0.033204
     29      -0.217925  -0.116349   0.305395  -0.264036  -0.076364   0.041378
     30       0.083918  -0.068380   0.108896  -0.062253   0.088860  -0.100407
     31       0.170218  -0.139183   0.232061  -0.137850   0.165662  -0.188551
     32       0.296466  -0.241150   0.396324  -0.229392   0.290056  -0.324426
     33       0.000003  -0.000002  -0.000010   0.000017  -0.000003   0.000003
     34      -0.000010   0.000002  -0.000003  -0.000014  -0.000001   0.000003
     35      -0.000001  -0.000005   0.000000   0.000026  -0.000001   0.000007


-----------
IR SPECTRUM
-----------

 Mode    freq (cm**-1)   T**2         TX         TY         TZ
-------------------------------------------------------------------
   7:        36.89    6.053022  ( -0.706787  -0.943837   2.159316)
   8:        44.74   12.466845  ( -2.252898  -0.017956  -2.718635)
   9:       248.62    0.243240  ( -0.397454  -0.069172  -0.283700)
  10:       260.92    5.879469  (  1.394493  -1.147845   1.617811)
  11:       290.23    1.101459  ( -0.585695  -0.673542   0.552052)
  12:       306.45    4.664286  ( -1.237431   1.590629  -0.776498)
  13:       404.29    3.896216  ( -1.120285   0.990300  -1.288597)
  14:       532.85   40.011422  (  3.408958  -4.943960   1.986879)
  15:       906.26   30.047737  (  3.126945  -2.779907   3.541479)
  16:       932.24    1.893503  (  0.843170   0.712078  -0.821896)
  17:       944.93    0.148621  (  0.311146   0.135736  -0.182714)
  18:      1040.55   64.961628  ( -4.440039   4.313636  -5.161417)
  19:      1159.73    5.061572  (  0.655497   1.847049  -1.104675)
  20:      1165.46   68.703893  (  4.620187  -6.402892   2.522051)
  21:      1222.87   44.069878  ( -3.767233   4.005702  -3.719165)
  22:      1336.26    0.727270  ( -0.641235  -0.468757   0.310410)
  23:      1379.97   17.605888  ( -0.280451   2.576439   3.299878)
  24:      1385.32   24.796682  (  4.179135   2.106683  -1.700999)
  25:      1433.96    1.069213  (  0.575153   0.106620  -0.852669)
  26:      1440.51    0.970841  (  0.217123   0.053922  -0.959578)
  27:      1445.35   19.257002  ( -0.945046  -2.350583  -3.583106)
  28:      1457.09    9.493695  ( -1.282742  -0.522350  -2.752348)
  29:      3051.41   19.991322  (  3.699888   2.108584  -1.362360)
  30:      3053.40   15.730571  (  1.070486  -2.996770  -2.367276)
  31:      3139.52    0.449699  (  0.283931   0.009615   0.607445)
  32:      3150.65    0.946662  ( -0.767608  -0.397507   0.446574)
  33:      3155.47    5.079413  (  1.222007  -0.140582   1.888478)
  34:      3167.85   11.934655  (  2.720052   1.468741  -1.542326)
  35:      3170.46   24.977590  ( -0.131464   3.618574   3.444739)

The first frequency considered to be a vibration is 7
The total number of vibrations considered is 29


--------------------------
THERMOCHEMISTRY AT 298.15K
--------------------------

Temperature         ... 298.15 K
Pressure            ... 1.00 atm
Total Mass          ... 202.89 AMU

Throughout the following assumptions are being made:
  (1) The electronic state is orbitally nondegenerate
  (2) There are no thermally accessible electronically excited states
  (3) Hindered rotations indicated by low frequency modes are not
      treated as such but are treated as vibrations and this may
      cause some error
  (4) All equations used are the standard statistical mechanics
      equations for an ideal gas
  (5) All vibrations are strictly harmonic

freq.      36.89  E(vib)   ...       0.54 
freq.      44.74  E(vib)   ...       0.53 
freq.     248.62  E(vib)   ...       0.31 
freq.     260.92  E(vib)   ...       0.30 
freq.     290.23  E(vib)   ...       0.27 
freq.     306.45  E(vib)   ...       0.26 
freq.     404.29  E(vib)   ...       0.19 
freq.     532.85  E(vib)   ...       0.13 
freq.     906.26  E(vib)   ...       0.03 
freq.     932.24  E(vib)   ...       0.03 
freq.     944.93  E(vib)   ...       0.03 
freq.    1040.55  E(vib)   ...       0.02 
freq.    1159.73  E(vib)   ...       0.01 
freq.    1165.46  E(vib)   ...       0.01 
freq.    1222.87  E(vib)   ...       0.01 
freq.    1336.26  E(vib)   ...       0.01 
freq.    1379.97  E(vib)   ...       0.01 
freq.    1385.32  E(vib)   ...       0.00 
freq.    1433.96  E(vib)   ...       0.00 
freq.    1440.51  E(vib)   ...       0.00 
freq.    1445.35  E(vib)   ...       0.00 
freq.    1457.09  E(vib)   ...       0.00 
freq.    3051.41  E(vib)   ...       0.00 
freq.    3053.40  E(vib)   ...       0.00 
freq.    3139.52  E(vib)   ...       0.00 
freq.    3150.65  E(vib)   ...       0.00 
freq.    3155.47  E(vib)   ...       0.00 
freq.    3167.85  E(vib)   ...       0.00 
freq.    3170.46  E(vib)   ...       0.00 

------------
INNER ENERGY
------------

The inner energy is: U= E(el) + E(ZPE) + E(vib) + E(rot) + E(trans)
    E(el)   - is the total energy from the electronic structure calculation
              = E(kin-el) + E(nuc-el) + E(el-el) + E(nuc-nuc)
    E(ZPE)  - the the zero temperature vibrational energy from the frequency calculation
    E(vib)  - the the finite temperature correction to E(ZPE) due to population
              of excited vibrational states
    E(rot)  - is the rotational thermal energy
    E(trans)- is the translational thermal energy

Summary of contributions to the inner energy U:
Electronic energy                ...  -5265.58494088 Eh
Zero point energy                ...      0.09400685 Eh      58.99 kcal/mol
Thermal vibrational correction   ...      0.00430144 Eh       2.70 kcal/mol
Thermal rotational correction    ...      0.00141627 Eh       0.89 kcal/mol
Thermal translational correction ...      0.00141627 Eh       0.89 kcal/mol
-----------------------------------------------------------------------
Total thermal energy                  -5265.48380005 Eh


Summary of corrections to the electronic energy:
(perhaps to be used in another calculation)
Total thermal correction                  0.00713398 Eh       4.48 kcal/mol
Non-thermal (ZPE) correction              0.09400685 Eh      58.99 kcal/mol
-----------------------------------------------------------------------
Total correction                          0.10114083 Eh      63.47 kcal/mol


--------
ENTHALPY
--------

The enthalpy is H = U + kB*T
                kB is Boltzmann's constant
Total free energy                 ...  -5265.48380005 Eh 
Thermal Enthalpy correction       ...      0.00094421 Eh       0.59 kcal/mol
-----------------------------------------------------------------------
Total Enthalpy                    ...  -5265.48285584 Eh


Note: Only C1 symmetry has been detected, increase convergence thresholds 
      if your molecule has a higher symmetry. Symmetry factor of 1.0 is   
      used for the rotational entropy correction. 
 

Note: Rotational entropy computed according to Herzberg 
Infrared and Raman Spectra, Chapter V,1, Van Nostrand Reinhold, 1945 
Point Group:  C1, Symmetry Number:   1  
Rotational constants in cm-1:     0.157075     0.011641     0.011600 

Vibrational entropy computed according to the QRRHO of S. Grimme
Chem.Eur.J. 2012 18 9955


-------
ENTROPY
-------

The entropy contributions are T*S = T*(S(el)+S(vib)+S(rot)+S(trans))
     S(el)   - electronic entropy
     S(vib)  - vibrational entropy
     S(rot)  - rotational entropy
     S(trans)- translational entropy
The entropies will be listed as mutliplied by the temperature to get
units of energy

Electronic entropy                ...      0.00000000 Eh      0.00 kcal/mol
Vibrational entropy               ...      0.00764656 Eh      4.80 kcal/mol
Rotational entropy                ...      0.01459098 Eh      9.16 kcal/mol
Translational entropy             ...      0.01987324 Eh     12.47 kcal/mol
-----------------------------------------------------------------------
Final entropy term                ...      0.04211078 Eh     26.42 kcal/mol

In case the symmetry of your molecule has not been determined correctly
or in case you have a reason to use a different symmetry number we print 
out the resulting rotational entropy values for sn=1,12 :
 --------------------------------------------------------
|  sn= 1 | S(rot)=       0.01459098 Eh      9.16 kcal/mol|
|  sn= 2 | S(rot)=       0.01393652 Eh      8.75 kcal/mol|
|  sn= 3 | S(rot)=       0.01355369 Eh      8.51 kcal/mol|
|  sn= 4 | S(rot)=       0.01328207 Eh      8.33 kcal/mol|
|  sn= 5 | S(rot)=       0.01307138 Eh      8.20 kcal/mol|
|  sn= 6 | S(rot)=       0.01289923 Eh      8.09 kcal/mol|
|  sn= 7 | S(rot)=       0.01275369 Eh      8.00 kcal/mol|
|  sn= 8 | S(rot)=       0.01262761 Eh      7.92 kcal/mol|
|  sn= 9 | S(rot)=       0.01251640 Eh      7.85 kcal/mol|
|  sn=10 | S(rot)=       0.01241692 Eh      7.79 kcal/mol|
|  sn=11 | S(rot)=       0.01232693 Eh      7.74 kcal/mol|
|  sn=12 | S(rot)=       0.01224478 Eh      7.68 kcal/mol|
 --------------------------------------------------------


-------------------
GIBBS FREE ENERGY
-------------------

The Gibbs free energy is G = H - T*S

Total enthalpy                    ...  -5265.48285584 Eh 
Total entropy correction          ...     -0.04211078 Eh    -26.42 kcal/mol
-----------------------------------------------------------------------
Final Gibbs free energy         ...  -5265.52496662 Eh

For completeness - the Gibbs free energy minus the electronic energy
G-E(el)                           ...      0.05997426 Eh     37.63 kcal/mol

[1631286128.295708] [comp0806:24247:0]            sys.c:618  UCX  ERROR shmget(size=2097152 flags=0xfb0) for mm_recv_desc failed: Operation not permitted, please check shared memory limits by 'ipcs -l'
[1631286128.303029] [comp0806:24249:0]            sys.c:618  UCX  ERROR shmget(size=2097152 flags=0xfb0) for mm_recv_desc failed: Operation not permitted, please check shared memory limits by 'ipcs -l'
[1631286128.333152] [comp0806:24250:0]            sys.c:618  UCX  ERROR shmget(size=2097152 flags=0xfb0) for mm_recv_desc failed: Operation not permitted, please check shared memory limits by 'ipcs -l'
[1631286128.333276] [comp0806:24248:0]            sys.c:618  UCX  ERROR shmget(size=2097152 flags=0xfb0) for mm_recv_desc failed: Operation not permitted, please check shared memory limits by 'ipcs -l'
[1631286128.341416] [comp0806:24247:0]            sys.c:618  UCX  ERROR shmget(size=2097152 flags=0xb80) for ucp_am_bufs failed: Operation not permitted, please check shared memory limits by 'ipcs -l'
[1631286128.342104] [comp0806:24249:0]            sys.c:618  UCX  ERROR shmget(size=2097152 flags=0xb80) for ucp_am_bufs failed: Operation not permitted, please check shared memory limits by 'ipcs -l'

Timings for individual modules:

Sum of individual times         ...       69.203 sec (=   1.153 min)
GTO integral calculation        ...        1.148 sec (=   0.019 min)   1.7 %
SCF iterations                  ...       12.167 sec (=   0.203 min)  17.6 %
Analytical frequency calculation...       55.889 sec (=   0.931 min)  80.8 %
                             ****ORCA TERMINATED NORMALLY****
TOTAL RUN TIME: 0 days 0 hours 1 minutes 10 seconds 569 msec
