
                                 *****************
                                 * O   R   C   A *
                                 *****************

           --- An Ab Initio, DFT and Semiempirical electronic structure package ---

                  #######################################################
                  #                        -***-                        #
                  #          Department of theory and spectroscopy      #
                  #               Directorship: Frank Neese             #
                  #        Max Planck Institute fuer Kohlenforschung    #
                  #                Kaiser Wilhelm Platz 1               #
                  #                 D-45470 Muelheim/Ruhr               #
                  #                      Germany                        #
                  #                                                     #
                  #                  All rights reserved                #
                  #                        -***-                        #
                  #######################################################


                         Program Version 4.2.1 -  RELEASE  -


 With contributions from (in alphabetic order):
   Daniel Aravena         : Magnetic Suceptibility
   Michael Atanasov       : Ab Initio Ligand Field Theory (pilot matlab implementation)
   Alexander A. Auer      : GIAO ZORA, VPT2
   Ute Becker             : Parallelization
   Giovanni Bistoni       : ED, misc. LED, open-shell LED, HFLD
   Martin Brehm           : Molecular dynamics
   Dmytro Bykov           : SCF Hessian
   Vijay G. Chilkuri      : MRCI spin determinant printing, contributions to CSF-ICE
   Dipayan Datta          : RHF DLPNO-CCSD density
   Achintya Kumar Dutta   : EOM-CC, STEOM-CC
   Dmitry Ganyushin       : Spin-Orbit,Spin-Spin,Magnetic field MRCI
   Miquel Garcia          : C-PCM Hessian, Gaussian charge scheme
   Yang Guo               : DLPNO-NEVPT2, CIM, IAO-localization
   Andreas Hansen         : Spin unrestricted coupled pair/coupled cluster methods
   Benjamin Helmich-Paris : CASSCF linear response (MC-RPA)
   Lee Huntington         : MR-EOM, pCC
   Robert Izsak           : Overlap fitted RIJCOSX, COSX-SCS-MP3, EOM
   Christian Kollmar      : KDIIS, OOCD, Brueckner-CCSD(T), CCSD density
   Simone Kossmann        : Meta GGA functionals, TD-DFT gradient, OOMP2, MP2 Hessian
   Martin Krupicka        : AUTO-CI
   Lucas Lang             : DCDCAS
   Dagmar Lenk            : GEPOL surface, SMD
   Dimitrios Liakos       : Extrapolation schemes; Compound Job, initial MDCI parallelization
   Dimitrios Manganas     : Further ROCIS development; embedding schemes
   Dimitrios Pantazis     : SARC Basis sets
   Taras Petrenko         : DFT Hessian,TD-DFT gradient, ASA, ECA, R-Raman, ABS, FL, XAS/XES, NRVS
   Peter Pinski           : DLPNO-MP2, DLPNO-MP2 Gradient
   Christoph Reimann      : Effective Core Potentials
   Marius Retegan         : Local ZFS, SOC
   Christoph Riplinger    : Optimizer, TS searches, QM/MM, DLPNO-CCSD(T), (RO)-DLPNO pert. Triples
   Tobias Risthaus        : Range-separated hybrids, TD-DFT gradient, RPA, STAB
   Michael Roemelt        : Original ROCIS implementation
   Masaaki Saitow         : Open-shell DLPNO-CCSD energy and density
   Barbara Sandhoefer     : DKH picture change effects
   Avijit Sen             : IP-ROCIS
   Kantharuban Sivalingam : CASSCF convergence, NEVPT2, FIC-MRCI
   Bernardo de Souza      : ESD, SOC TD-DFT
   Georgi Stoychev        : AutoAux, RI-MP2 NMR
   Willem Van den Heuvel  : Paramagnetic NMR
   Boris Wezisla          : Elementary symmetry handling
   Frank Wennmohs         : Technical directorship


 We gratefully acknowledge several colleagues who have allowed us to
 interface, adapt or use parts of their codes:
   Stefan Grimme, W. Hujo, H. Kruse,             : VdW corrections, initial TS optimization,
                  C. Bannwarth                     DFT functionals, gCP, sTDA/sTD-DF
   Ed Valeev, F. Pavosevic, A. Kumar             : LibInt (2-el integral package), F12 methods
   Garnet Chan, S. Sharma, J. Yang, R. Olivares  : DMRG
   Ulf Ekstrom                                   : XCFun DFT Library
   Mihaly Kallay                                 : mrcc  (arbitrary order and MRCC methods)
   Andreas Klamt, Michael Diedenhofen            : otool_cosmo (COSMO solvation model)
   Jiri Pittner, Ondrej Demel                    : Mk-CCSD
   Frank Weinhold                                : gennbo (NPA and NBO analysis)
   Christopher J. Cramer and Donald G. Truhlar   : smd solvation model
   Lars Goerigk                                  : TD-DFT with DH, B97 family of functionals
   V. Asgeirsson, H. Jonsson                     : NEB implementation
   FAccTs GmbH                                   : IRC, NEB, NEB-TS, Multilevel, MM, QM/MM, CI optimization
   S Lehtola, MJT Oliveira, MAL Marques          : LibXC Library


 Your calculation uses the libint2 library for the computation of 2-el integrals
 For citations please refer to: http://libint.valeyev.net

 Your ORCA version has been built with support for libXC version: 4.2.3
 For citations please refer to: https://tddft.org/programs/libxc/

 This ORCA versions uses:
   CBLAS   interface :  Fast vector & matrix operations
   LAPACKE interface :  Fast linear algebra routines
   SCALAPACK package :  Parallel linear algebra routines


Your calculation utilizes the atom-pairwise dispersion correction
with the Becke-Johnson damping scheme (D3BJ)
Cite in your paper:
S.Grimme, S.Ehrlich, L.Goerigk, J Comput Chem, (2011), 32, 1456–1465 
S.Grimme, J.Antony, S.Ehrlich and H.Krieg, J.Chem.Phys., 132, (2010), 154104 
   

----- Orbital basis set information -----
Your calculation utilizes the basis: def2-SVP
   F. Weigend and R. Ahlrichs, Phys. Chem. Chem. Phys. 7, 3297 (2005).

----- AuxJ basis set information -----
Your calculation utilizes the auxiliary basis: def2/J
   F. Weigend, Phys. Chem. Chem. Phys. 8, 1057 (2006).

cite the ECPs for I  [Def2-ECP] as follows:
Ce-Yb(ecp-28): M. Dolg, H. Stoll, H.Preuss, J. Chem. Phys., 1989, 90, 1730-1734.
Y-Cd(ecp-28), Hf-Hg(ecp-46): D. Andrae,U. Haeussermann, M. Dolg, H. Stoll, H. Preuss, Theor. Chim. Acta, 1990, 77, 123-141.
In-Sb(ecp-28), Tl-Bi(ecp-46): B. Metz, H. Stoll, M. Dolg, J. Chem. Phys., 2000, 113, 2563-2569.
Te-Xe(ecp-28), Po-Rn(ecp-46): K. A. Peterson, D. Figgen, E. Goll, H. Stoll, M. Dolg, J. Chem. Phys., 2003, 119, 11113-11123.
Rb(ecp-28), Cs(ecp-46): T. Leininger, A. Nicklass, W. Kuechle, H. Stoll, M. Dolg, A. Bergner, Chem. Phys. Lett., 1996, 255, 274-280.
Sr(ecp-28), Ba(ecp-46): M. Kaupp, P. V. Schleyer, H. Stoll and H. Preuss, J. Chem. Phys., 1991, 94, 1360-1366.
La(ecp-46): M. Dolg, H. Stoll, A. Savin, H. Preuss, Theor. Chim. Acta, 1989, 75, 173-194.
Lu(ecp-28): X. Cao, M. Dolg, J. Chem. Phys., 2001, 115, 7348-7355.

ECP parameters for I  [Def2-ECP] have been obtained from:
TURBOMOLE (7.0.2)

================================================================================
                                        WARNINGS
                       Please study these warnings very carefully!
================================================================================


INFO   : the flag for use of LIBINT has been found!

================================================================================
                                       INPUT FILE
================================================================================
NAME = manual_reactants_359_freq.inp
|  1> ! Freq PBE0 RIJCOSX D3BJ def2-SVP def2/J CPCM(Acetone)
|  2> %geom MaxIter 100 end
|  3> %output 
|  4> xyzfile=True 
|  5> end 
|  6> %scf 
|  7> maxiter 250 
|  8> end
|  9> %output
| 10> Print[P_Hirshfeld] = 1
| 11> end
| 12> % maxcore
| 13> 4000
| 14> %pal nprocs 4
| 15> end
| 16> *xyz -1 1
| 17>   C   -0.39329203470779     -2.13612586394344     -1.20869876237281
| 18>   C   -0.55496529794089     -1.13736514933627     -0.09159053279048
| 19>   C   -1.95911000985706     -1.01763761284108      0.44711518228325
| 20>   I   0.13241150226865      0.85203782616401     -0.77552160385186
| 21>   H   0.64465359124733     -2.19878681956794     -1.56611097441079
| 22>   H   -1.04541291060192     -1.91235439744443     -2.06696322626260
| 23>   H   -0.67793477571799     -3.12845580221091     -0.81562757188102
| 24>   H   0.13431176592706     -1.30994575323490      0.75376318305052
| 25>   H   -1.98628514994477     -0.36035498119015      1.32648426642358
| 26>   H   -2.27854867106139     -2.02073080656808      0.77991545875016
| 27>   H   -2.67531552642862     -0.66510338150647     -0.31125494604639
| 28>   Cl  0.59700751681740     -1.22341725832033      3.05694952710843
| 29> *
| 30> 
| 31>                          ****END OF INPUT****
================================================================================

                       ****************************
                       * Single Point Calculation *
                       ****************************

---------------------------------
CARTESIAN COORDINATES (ANGSTROEM)
---------------------------------
  C     -0.393292   -2.136126   -1.208699
  C     -0.554965   -1.137365   -0.091591
  C     -1.959110   -1.017638    0.447115
  I      0.132412    0.852038   -0.775522
  H      0.644654   -2.198787   -1.566111
  H     -1.045413   -1.912354   -2.066963
  H     -0.677935   -3.128456   -0.815628
  H      0.134312   -1.309946    0.753763
  H     -1.986285   -0.360355    1.326484
  H     -2.278549   -2.020731    0.779915
  H     -2.675316   -0.665103   -0.311255
  Cl     0.597008   -1.223417    3.056950

----------------------------
CARTESIAN COORDINATES (A.U.)
----------------------------
  NO LB      ZA    FRAG     MASS         X           Y           Z
   0 C     6.0000    0    12.011   -0.743214   -4.036693   -2.284110
   1 C     6.0000    0    12.011   -1.048732   -2.149309   -0.173081
   2 C     6.0000    0    12.011   -3.702181   -1.923056    0.844925
   3 I    25.0000*   0   126.900    0.250221    1.610118   -1.465523
   4 H     1.0000    0     1.008    1.218219   -4.155105   -2.959521
   5 H     1.0000    0     1.008   -1.975544   -3.613826   -3.905994
   6 H     1.0000    0     1.008   -1.281111   -5.911925   -1.541313
   7 H     1.0000    0     1.008    0.253812   -2.475439    1.424406
   8 H     1.0000    0     1.008   -3.753535   -0.680972    2.506692
   9 H     1.0000    0     1.008   -4.305833   -3.818628    1.473827
  10 H     1.0000    0     1.008   -5.055614   -1.256863   -0.588187
  11 Cl   17.0000    0    35.453    1.128181   -2.311924    5.776797
* core charge reduced due to ECP

--------------------------------
INTERNAL COORDINATES (ANGSTROEM)
--------------------------------
 C      0   0   0     0.000000000000     0.00000000     0.00000000
 C      1   0   0     1.507180150376     0.00000000     0.00000000
 C      2   1   0     1.508695099233   114.65027521     0.00000000
 I      2   1   3     2.213136411150   109.46970791   236.96884798
 H      1   2   3     1.099545818560   112.33062898   180.49456997
 H      1   2   3     1.100887458359   112.30904809    57.85424928
 H      1   2   3     1.104647073588   107.69251098   299.19340476
 H      2   1   3     1.104314194649   113.38252455   125.58992785
 H      3   2   1     1.098202591624   110.88191601   173.73339126
 H      3   2   1     1.104080177156   107.74649579    56.74059797
 H      3   2   1     1.101070378211   112.63521305   297.63335043
 Cl     8   2   1     2.350796008542   150.12305410   212.56717915

---------------------------
INTERNAL COORDINATES (A.U.)
---------------------------
 C      0   0   0     0.000000000000     0.00000000     0.00000000
 C      1   0   0     2.848157718693     0.00000000     0.00000000
 C      2   1   0     2.851020557140   114.65027521     0.00000000
 I      2   1   3     4.182221714083   109.46970791   236.96884798
 H      1   2   3     2.077840468777   112.33062898   180.49456997
 H      1   2   3     2.080375800567   112.30904809    57.85424928
 H      1   2   3     2.087480443719   107.69251098   299.19340476
 H      2   1   3     2.086851393688   113.38252455   125.58992785
 H      3   2   1     2.075302137733   110.88191601   173.73339126
 H      3   2   1     2.086409164717   107.74649579    56.74059797
 H      3   2   1     2.080721468991   112.63521305   297.63335043
 Cl     8   2   1     4.442360652860   150.12305410   212.56717915

---------------------
BASIS SET INFORMATION
---------------------
There are 4 groups of distinct atoms

 Group   1 Type C   : 7s4p1d contracted to 3s2p1d pattern {511/31/1}
 Group   2 Type I   : 10s7p6d contracted to 4s4p2d pattern {6211/4111/51}
 Group   3 Type H   : 4s1p contracted to 2s1p pattern {31/1}
 Group   4 Type Cl  : 10s7p1d contracted to 4s3p1d pattern {5311/511/1}

Atom   0C    basis set group =>   1
Atom   1C    basis set group =>   1
Atom   2C    basis set group =>   1
Atom   3I    basis set group =>   2
Atom   4H    basis set group =>   3
Atom   5H    basis set group =>   3
Atom   6H    basis set group =>   3
Atom   7H    basis set group =>   3
Atom   8H    basis set group =>   3
Atom   9H    basis set group =>   3
Atom  10H    basis set group =>   3
Atom  11Cl   basis set group =>   4
---------------------------------
AUXILIARY/J BASIS SET INFORMATION
---------------------------------
There are 4 groups of distinct atoms

 Group   1 Type C   : 12s5p4d2f1g contracted to 6s4p3d1f1g pattern {711111/2111/211/2/1}
 Group   2 Type I   : 11s5p5d3f1g contracted to 8s4p3d2f1g pattern {41111111/2111/311/21/1}
 Group   3 Type H   : 5s2p1d contracted to 3s1p1d pattern {311/2/1}
 Group   4 Type Cl  : 14s5p5d2f1g contracted to 8s4p3d1f1g pattern {71111111/2111/311/2/1}

Atom   0C    basis set group =>   1
Atom   1C    basis set group =>   1
Atom   2C    basis set group =>   1
Atom   3I    basis set group =>   2
Atom   4H    basis set group =>   3
Atom   5H    basis set group =>   3
Atom   6H    basis set group =>   3
Atom   7H    basis set group =>   3
Atom   8H    basis set group =>   3
Atom   9H    basis set group =>   3
Atom  10H    basis set group =>   3
Atom  11Cl   basis set group =>   4
-------------------------
ECP PARAMETER INFORMATION
-------------------------

 Group 1, Type I  ECP Def2-ECP (replacing 28 core electrons, lmax=3)

Atom   3I    ECP group =>   1

[1631721900.021768] [comp0805:228913:0]            sys.c:618  UCX  ERROR shmget(size=2097152 flags=0xfb0) for mm_recv_desc failed: Operation not permitted, please check shared memory limits by 'ipcs -l'
[1631721900.022286] [comp0805:228915:0]            sys.c:618  UCX  ERROR shmget(size=2097152 flags=0xfb0) for mm_recv_desc failed: Operation not permitted, please check shared memory limits by 'ipcs -l'
[1631721900.022427] [comp0805:228919:0]            sys.c:618  UCX  ERROR shmget(size=2097152 flags=0xfb0) for mm_recv_desc failed: Operation not permitted, please check shared memory limits by 'ipcs -l'
[1631721900.022504] [comp0805:228917:0]            sys.c:618  UCX  ERROR shmget(size=2097152 flags=0xfb0) for mm_recv_desc failed: Operation not permitted, please check shared memory limits by 'ipcs -l'
[1631721900.031105] [comp0805:228919:0]            sys.c:618  UCX  ERROR shmget(size=2097152 flags=0xb80) for ucp_am_bufs failed: Operation not permitted, please check shared memory limits by 'ipcs -l'
[1631721900.031106] [comp0805:228917:0]            sys.c:618  UCX  ERROR shmget(size=2097152 flags=0xb80) for ucp_am_bufs failed: Operation not permitted, please check shared memory limits by 'ipcs -l'
[1631721900.117814] [comp0805:228913:0]            sys.c:618  UCX  ERROR shmget(size=2097152 flags=0xb80) for ucp_am_bufs failed: Operation not permitted, please check shared memory limits by 'ipcs -l'
[1631721900.119335] [comp0805:228915:0]            sys.c:618  UCX  ERROR shmget(size=2097152 flags=0xb80) for ucp_am_bufs failed: Operation not permitted, please check shared memory limits by 'ipcs -l'


           ************************************************************
           *        Program running with 4 parallel MPI-processes     *
           *              working on a common directory               *
           ************************************************************
------------------------------------------------------------------------------
                           ORCA GTO INTEGRAL CALCULATION
                           -- RI-GTO INTEGRALS CHOSEN --
------------------------------------------------------------------------------

                         BASIS SET STATISTICS AND STARTUP INFO

Gaussian basis set:
 # of primitive gaussian shells          ...  112
 # of primitive gaussian functions       ...  218
 # of contracted shells                  ...   57
 # of contracted basis functions         ...  121
 Highest angular momentum                ...    2
 Maximum contraction depth               ...    6
Auxiliary gaussian basis set:
 # of primitive gaussian shells          ...  180
 # of primitive gaussian functions       ...  480
 # of contracted shells                  ...  115
 # of contracted aux-basis functions     ...  333
 Highest angular momentum                ...    4
 Maximum contraction depth               ...    7
Ratio of auxiliary to basis functions    ...  2.75
Integral package used                  ... LIBINT
 One Electron integrals                  
   ECP integrals                         ... done
 Ordering auxiliary basis shells         ... done
 Integral threshhold             Thresh  ...  1.000e-10
 Primitive cut-off               TCut    ...  1.000e-11
 Pre-screening matrix                    ... done
 Shell pair data                         ... 
 Ordering of the shell pairs             ... done (   0.000 sec) 1567 of 1653 pairs
 Determination of significant pairs      ... done (   0.000 sec)
 Creation of shell pair data             ... done (   0.000 sec)
 Storage of shell pair data              ... done (   0.001 sec)
 Shell pair data done in (   0.001 sec)
 Computing two index integrals           ... done
 Cholesky decomposition of the V-matrix  ... done


Timings:
 Total evaluation time                   ...   0.488 sec (  0.008 min)
 One electron matrix time                ...   0.123 sec (  0.002 min) = 25.2%
 Schwartz matrix evaluation time         ...   0.154 sec (  0.003 min) = 31.5%
 Two index repulsion integral time       ...   0.003 sec (  0.000 min) =  0.7%
 Cholesky decomposition of V             ...   0.165 sec (  0.003 min) = 33.7%
 Three index repulsion integral time     ...   0.000 sec (  0.000 min) =  0.0%

[1631721903.566421] [comp0805:228962:0]            sys.c:618  UCX  ERROR shmget(size=2097152 flags=0xfb0) for mm_recv_desc failed: Operation not permitted, please check shared memory limits by 'ipcs -l'
[1631721903.569836] [comp0805:228959:0]            sys.c:618  UCX  ERROR shmget(size=2097152 flags=0xfb0) for mm_recv_desc failed: Operation not permitted, please check shared memory limits by 'ipcs -l'
[1631721903.570830] [comp0805:228960:0]            sys.c:618  UCX  ERROR shmget(size=2097152 flags=0xfb0) for mm_recv_desc failed: Operation not permitted, please check shared memory limits by 'ipcs -l'
[1631721903.571020] [comp0805:228964:0]            sys.c:618  UCX  ERROR shmget(size=2097152 flags=0xfb0) for mm_recv_desc failed: Operation not permitted, please check shared memory limits by 'ipcs -l'
[1631721903.578671] [comp0805:228959:0]            sys.c:618  UCX  ERROR shmget(size=2097152 flags=0xb80) for ucp_am_bufs failed: Operation not permitted, please check shared memory limits by 'ipcs -l'
[1631721903.579300] [comp0805:228962:0]            sys.c:618  UCX  ERROR shmget(size=2097152 flags=0xb80) for ucp_am_bufs failed: Operation not permitted, please check shared memory limits by 'ipcs -l'


           ************************************************************
           *        Program running with 4 parallel MPI-processes     *
           *              working on a common directory               *
           ************************************************************
[1631721903.583008] [comp0805:228964:0]            sys.c:618  UCX  ERROR shmget(size=2097152 flags=0xb80) for ucp_am_bufs failed: Operation not permitted, please check shared memory limits by 'ipcs -l'
[1631721903.582941] [comp0805:228960:0]            sys.c:618  UCX  ERROR shmget(size=2097152 flags=0xb80) for ucp_am_bufs failed: Operation not permitted, please check shared memory limits by 'ipcs -l'
-------------------------------------------------------------------------------
                                 ORCA SCF
-------------------------------------------------------------------------------

------------
SCF SETTINGS
------------
Hamiltonian:
 Density Functional     Method          .... DFT(GTOs)
 Exchange Functional    Exchange        .... PBE
   PBE kappa parameter   XKappa         ....  0.804000
   PBE mue parameter    XMuePBE         ....  0.219520
 Correlation Functional Correlation     .... PBE
   PBE beta parameter  CBetaPBE         ....  0.066725
 LDA part of GGA corr.  LDAOpt          .... PW91-LDA
 Gradients option       PostSCFGGA      .... off
 Hybrid DFT is turned on
   Fraction HF Exchange ScalHFX         ....  0.250000
   Scaling of DF-GGA-X  ScalDFX         ....  0.750000
   Scaling of DF-GGA-C  ScalDFC         ....  1.000000
   Scaling of DF-LDA-C  ScalLDAC        ....  1.000000
   Perturbative correction              ....  0.000000
   Density functional embedding theory  .... OFF
   NL short-range parameter             ....  6.900000
 RI-approximation to the Coulomb term is turned on
   Number of auxiliary basis functions  .... 333
   RIJ-COSX (HFX calculated with COS-X)).... on


General Settings:
 Integral files         IntName         .... manual_reactants_359_freq
 Hartree-Fock type      HFTyp           .... RHF
 Total Charge           Charge          ....   -1
 Multiplicity           Mult            ....    1
 Number of Electrons    NEL             ....   68
 Basis Dimension        Dim             ....  121
 Nuclear Repulsion      ENuc            ....    301.7675933778 Eh

Convergence Acceleration:
 DIIS                   CNVDIIS         .... on
   Start iteration      DIISMaxIt       ....    12
   Startup error        DIISStart       ....  0.200000
   # of expansion vecs  DIISMaxEq       ....     5
   Bias factor          DIISBfac        ....   1.050
   Max. coefficient     DIISMaxC        ....  10.000
 Newton-Raphson         CNVNR           .... off
 SOSCF                  CNVSOSCF        .... on
   Start iteration      SOSCFMaxIt      ....   150
   Startup grad/error   SOSCFStart      ....  0.003300
 Level Shifting         CNVShift        .... on
   Level shift para.    LevelShift      ....    0.2500
   Turn off err/grad.   ShiftErr        ....    0.0010
 Zerner damping         CNVZerner       .... off
 Static damping         CNVDamp         .... on
   Fraction old density DampFac         ....    0.7000
   Max. Damping (<1)    DampMax         ....    0.9800
   Min. Damping (>=0)   DampMin         ....    0.0000
   Turn off err/grad.   DampErr         ....    0.1000
 Fernandez-Rico         CNVRico         .... off

SCF Procedure:
 Maximum # iterations   MaxIter         ....   250
 SCF integral mode      SCFMode         .... Direct
   Integral package                     .... LIBINT
 Reset frequency        DirectResetFreq ....    20
 Integral Threshold     Thresh          ....  1.000e-10 Eh
 Primitive CutOff       TCut            ....  1.000e-11 Eh

Convergence Tolerance:
 Convergence Check Mode ConvCheckMode   .... Total+1el-Energy
 Convergence forced     ConvForced      .... 0
 Energy Change          TolE            ....  1.000e-06 Eh
 1-El. energy change                    ....  1.000e-03 Eh
 Orbital Gradient       TolG            ....  5.000e-05
 Orbital Rotation angle TolX            ....  5.000e-05
 DIIS Error             TolErr          ....  1.000e-06


Diagonalization of the overlap matrix:
Smallest eigenvalue                        ... 2.743e-03
Time for diagonalization                   ...    0.311 sec
Threshold for overlap eigenvalues          ... 1.000e-08
Number of eigenvalues below threshold      ... 0
Time for construction of square roots      ...    0.001 sec
Total time needed                          ...    0.313 sec

-------------------
DFT GRID GENERATION
-------------------

General Integration Accuracy     IntAcc      ...  4.340
Radial Grid Type                 RadialGrid  ... Gauss-Chebyshev
Angular Grid (max. acc.)         AngularGrid ... Lebedev-110
Angular grid pruning method      GridPruning ... 3 (G Style)
Weight generation scheme         WeightScheme... Becke
Basis function cutoff            BFCut       ...    1.0000e-10
Integration weight cutoff        WCut        ...    1.0000e-14
Grids for H and He will be reduced by one unit

# of grid points (after initial pruning)     ...  15652 (   0.0 sec)
# of grid points (after weights+screening)   ...  14821 (   0.0 sec)
nearest neighbour list constructed           ...    0.0 sec
Grid point re-assignment to atoms done       ...    0.0 sec
Grid point division into batches done        ...    0.0 sec
Reduced shell lists constructed in    0.1 sec

Total number of grid points                  ...    14821
Total number of batches                      ...      238
Average number of points per batch           ...       62
Average number of grid points per atom       ...     1235
Average number of shells per batch           ...    44.10 (77.37%)
Average number of basis functions per batch  ...    93.44 (77.23%)
Average number of large shells per batch     ...    36.28 (82.27%)
Average number of large basis fcns per batch ...    74.97 (80.23%)
Maximum spatial batch extension              ...  22.61, 19.06, 18.56 au
Average spatial batch extension              ...   0.80,  0.78,  0.76 au

Time for grid setup =    0.096 sec

------------------------------
INITIAL GUESS: MODEL POTENTIAL
------------------------------
Loading Hartree-Fock densities                     ... done
  calling /usr/local/orca_4_2_1_linux_x86-64/orca manual_reactants_359_freq_atom53.inp > manual_reactants_359_freq_atom53.out in order to generate an atomic fitting density for atom 3 (I  with ECP) on-the-fly... 
    atom 3 (I ), assumed electronic state with S=2: 1s2 2s2 2p6 3s2 3p6 4s2 3d10 4p6 5s2 4d10 5p5           ... done
Calculating cut-offs                               ... done
Setting up the integral package                    ... done
Initializing the effective Hamiltonian             ... done
Starting the Coulomb interaction                   ... done (   0.0 sec)
Reading the grid                                   ... done
Mapping shells                                     ... done
Starting the XC term evaluation                    ... done (   0.0 sec)
  promolecular density results
     # of electrons  =     94.995058716
     EX              =   -217.854764378
     EC              =     -4.320612006
     EX+EC           =   -222.175376383
Transforming the Hamiltonian                       ... done (   0.0 sec)
Diagonalizing the Hamiltonian                      ... done (   0.0 sec)
Back transforming the eigenvectors                 ... done (   0.0 sec)
Now organizing SCF variables                       ... done
                      ------------------
                      INITIAL GUESS DONE (   6.3 sec)
                      ------------------
--------------------
COSX GRID GENERATION
--------------------

General Integration Accuracy     IntAcc      ...  3.340
Radial Grid Type                 RadialGrid  ... Gauss-Chebyshev
Angular Grid (max. acc.)         AngularGrid ... Lebedev-50
Angular grid pruning method      GridPruning ... 3 (G Style)
Weight generation scheme         WeightScheme... Becke
Basis function cutoff            BFCut       ...    1.0000e-10
Integration weight cutoff        WCut        ...    1.0000e-14
Grids for H and He will be reduced by one unit

# of grid points (after initial pruning)     ...   5916 (   0.0 sec)
# of grid points (after weights+screening)   ...   5618 (   0.0 sec)
nearest neighbour list constructed           ...    0.0 sec
Grid point re-assignment to atoms done       ...    0.0 sec
Grid point division into batches done        ...    0.0 sec
Reduced shell lists constructed in    0.0 sec

Total number of grid points                  ...     5618
Total number of batches                      ...       93
Average number of points per batch           ...       60
Average number of grid points per atom       ...      468
Average number of shells per batch           ...    45.64 (80.07%)
Average number of basis functions per batch  ...    97.08 (80.23%)
Average number of large shells per batch     ...    38.64 (84.66%)
Average number of large basis fcns per batch ...    80.32 (82.74%)
Maximum spatial batch extension              ...  19.42, 17.27, 18.22 au
Average spatial batch extension              ...   0.93,  0.85,  0.90 au

Overlap Fitting                  UseSFitting ... on
Constructing numerical overlap ... done (      0.0 sec)
Inverting numerical overlap    ... done (      0.0 sec)
Obtaining analytic overlap     ... done (      0.0 sec)
Final contraction and storage  ... done (      0.0 sec)


General Integration Accuracy     IntAcc      ...  3.670
Radial Grid Type                 RadialGrid  ... Gauss-Chebyshev
Angular Grid (max. acc.)         AngularGrid ... Lebedev-50
Angular grid pruning method      GridPruning ... 3 (G Style)
Weight generation scheme         WeightScheme... Becke
Basis function cutoff            BFCut       ...    1.0000e-10
Integration weight cutoff        WCut        ...    1.0000e-14
Grids for H and He will be reduced by one unit

# of grid points (after initial pruning)     ...   7410 (   0.0 sec)
# of grid points (after weights+screening)   ...   7020 (   0.0 sec)
nearest neighbour list constructed           ...    0.0 sec
Grid point re-assignment to atoms done       ...    0.0 sec
Grid point division into batches done        ...    0.0 sec
Reduced shell lists constructed in    0.0 sec

Total number of grid points                  ...     7020
Total number of batches                      ...      117
Average number of points per batch           ...       60
Average number of grid points per atom       ...      585
Average number of shells per batch           ...    45.32 (79.51%)
Average number of basis functions per batch  ...    96.42 (79.69%)
Average number of large shells per batch     ...    37.71 (83.20%)
Average number of large basis fcns per batch ...    78.35 (81.26%)
Maximum spatial batch extension              ...  21.01, 21.01, 18.10 au
Average spatial batch extension              ...   0.91,  0.97,  0.84 au

Overlap Fitting                  UseSFitting ... on
Constructing numerical overlap ... done (      0.0 sec)
Inverting numerical overlap    ... done (      0.0 sec)
Obtaining analytic overlap     ... done (      0.0 sec)
Final contraction and storage  ... done (      0.0 sec)


General Integration Accuracy     IntAcc      ...  4.010
Radial Grid Type                 RadialGrid  ... Gauss-Chebyshev
Angular Grid (max. acc.)         AngularGrid ... Lebedev-110
Angular grid pruning method      GridPruning ... 3 (G Style)
Weight generation scheme         WeightScheme... Becke
Basis function cutoff            BFCut       ...    1.0000e-10
Integration weight cutoff        WCut        ...    1.0000e-14
Grids for H and He will be reduced by one unit

# of grid points (after initial pruning)     ...  13686 (   0.0 sec)
# of grid points (after weights+screening)   ...  12983 (   0.0 sec)
nearest neighbour list constructed           ...    0.0 sec
Grid point re-assignment to atoms done       ...    0.0 sec
Grid point division into batches done        ...    0.0 sec
Reduced shell lists constructed in    0.0 sec

Total number of grid points                  ...    12983
Total number of batches                      ...      208
Average number of points per batch           ...       62
Average number of grid points per atom       ...     1082
Average number of shells per batch           ...    45.04 (79.01%)
Average number of basis functions per batch  ...    95.45 (78.89%)
Average number of large shells per batch     ...    37.13 (82.45%)
Average number of large basis fcns per batch ...    76.72 (80.37%)
Maximum spatial batch extension              ...  22.18, 17.87, 17.78 au
Average spatial batch extension              ...   0.76,  0.74,  0.69 au

Overlap Fitting                  UseSFitting ... on
Constructing numerical overlap ... done (      0.0 sec)
Inverting numerical overlap    ... done (      0.0 sec)
Obtaining analytic overlap     ... done (      0.0 sec)
Final contraction and storage  ... done (      0.0 sec)

Time for X-Grid setup             =    0.165 sec

--------------------
CPCM SOLVATION MODEL
--------------------
CPCM parameters:
  Epsilon                                         ...      20.7000
  Refrac                                          ...       1.3590
  Rsolv                                           ...       1.3000
  Surface type                                    ...    GEPOL SES
  Epsilon function type                           ...         CPCM
Radii:
 Radius for C  used is    3.7795 Bohr (=   2.0000 Ang.)
 Radius for I  used is    4.3842 Bohr (=   2.3200 Ang.)
 Radius for H  used is    2.4566 Bohr (=   1.3000 Ang.)
 Radius for Cl used is    3.8739 Bohr (=   2.0500 Ang.)
Calculating surface                               ...        done! (  0.1s)
GEPOL surface points                              ...          503
GEPOL Volume                                      ...    1045.5274
GEPOL Surface-area                                ...     593.8721
Calculating surface distance matrix               ...        done! (  0.0s)
Performing Cholesky decomposition & store         ...        done! (  0.0s)
Overall time for CPCM initialization              ...                 0.1s
--------------
SCF ITERATIONS
--------------
ITER       Energy         Delta-E        Max-DP      RMS-DP      [F,P]     Damp
               ***  Starting incremental Fock matrix formation  ***
  0   -850.0265942766   0.000000000000 2.57539147  0.06457735  1.0354033 0.7000
  1   -858.2748330582  -8.248238781608 1.05455168  0.03458169  0.6721531 0.7000
  2   -863.3867296200  -5.111896561853 0.81150054  0.02032235  0.4414026 0.7000
  3   -867.1294240798  -3.742694459720 0.69718321  0.01636182  0.2836240 0.7000
  4   -869.7835583454  -2.654134265635 0.54672727  0.01264844  0.2032571 0.7000
                               ***Turning on DIIS***
  5   -871.6515590963  -1.868000750886 0.40703720  0.00951909  0.1662156 0.7000
  6   -872.9673406601  -1.315781563807 0.30617974  0.00729045  0.1319503 0.7000
  7   -873.8941388653  -0.926798205195 0.75470535  0.01759858  0.0904716 0.0000
  8   -876.0786584619  -2.184519596566 0.01814202  0.00062634  0.0080114 0.0000
                      *** Initiating the SOSCF procedure ***
                           *** Shutting down DIIS ***
                      *** Re-Reading the Fockian *** 
                      *** Removing any level shift *** 
ITER      Energy       Delta-E        Grad      Rot      Max-DP    RMS-DP
  9   -876.07920052  -0.0005420571  0.002072  0.002072  0.013152  0.000314
               *** Restarting incremental Fock matrix formation ***
 10   -876.07935350  -0.0001529812  0.001295  0.005320  0.006077  0.000244
 11   -876.07939118  -0.0000376845  0.000404  0.002565  0.002373  0.000115
 12   -876.07939101   0.0000001765  0.000443  0.001212  0.001210  0.000060
 13   -876.07939650  -0.0000054943  0.000018  0.000043  0.000087  0.000003
                 **** Energy Check signals convergence ****
              ***Rediagonalizing the Fockian in SOSCF/NRSCF***

               *****************************************************
               *                     SUCCESS                       *
               *           SCF CONVERGED AFTER  14 CYCLES          *
               *****************************************************

Setting up the final grid:

General Integration Accuracy     IntAcc      ...  4.670
Radial Grid Type                 RadialGrid  ... Gauss-Chebyshev
Angular Grid (max. acc.)         AngularGrid ... Lebedev-302
Angular grid pruning method      GridPruning ... 3 (G Style)
Weight generation scheme         WeightScheme... Becke
Basis function cutoff            BFCut       ...    1.0000e-10
Integration weight cutoff        WCut        ...    1.0000e-14
Grids for H and He will be reduced by one unit

# of grid points (after initial pruning)     ...  59874 (   0.0 sec)
# of grid points (after weights+screening)   ...  56130 (   0.0 sec)
nearest neighbour list constructed           ...    0.0 sec
Grid point re-assignment to atoms done       ...    0.0 sec
Grid point division into batches done        ...    0.2 sec
Reduced shell lists constructed in    0.3 sec

Total number of grid points                  ...    56130
Total number of batches                      ...      884
Average number of points per batch           ...       63
Average number of grid points per atom       ...     4678
Average number of shells per batch           ...    42.12 (73.90%)
Average number of basis functions per batch  ...    88.78 (73.37%)
Average number of large shells per batch     ...    34.38 (81.63%)
Average number of large basis fcns per batch ...    70.77 (79.71%)
Maximum spatial batch extension              ...  20.06, 17.35, 22.79 au
Average spatial batch extension              ...   0.54,  0.54,  0.56 au

Final grid set up in    0.3 sec
Final integration                            ... done (   0.1 sec)
Change in XC energy                          ...     0.000014867
Integrated number of electrons               ...    68.000060543
Previous integrated no of electrons          ...    67.999562446
Old exchange energy                            =    -16.749320394 Eh
New exchange energy                            =    -16.748903782 Eh
Exchange energy change after final integration =      0.000416612 Eh
Total energy after final integration           =   -876.078965042 Eh
Final COS-X integration done in                =     0.627 sec

----------------
TOTAL SCF ENERGY
----------------

Total Energy       :         -876.07896504 Eh          -23839.32061 eV

Components:
Nuclear Repulsion  :          301.76759338 Eh            8211.51368 eV
Electronic Energy  :        -1177.84655842 Eh          -32050.83429 eV
One Electron Energy:        -1925.92281381 Eh          -52407.02409 eV
Two Electron Energy:          748.07625539 Eh           20356.18980 eV
CPCM Dielectric    :           -0.10556040 Eh              -2.87244 eV

Virial components:
Potential Energy   :        -1565.71823150 Eh          -42605.35909 eV
Kinetic Energy     :          689.63926645 Eh           18766.03849 eV
Virial Ratio       :            2.27034380


DFT components:
N(Alpha)           :       34.000030271495 electrons
N(Beta)            :       34.000030271495 electrons
N(Total)           :       68.000060542990 electrons
E(X)               :      -49.949113301025 Eh       
E(C)               :       -2.649099157714 Eh       
E(XC)              :      -52.598212458739 Eh       
DFET-embed. en.    :        0.000000000000 Eh       
CPCM Solvation Model Properties:
Surface-charge          :            0.97451260
Charge-correction       :           -0.00367977 Eh              -0.10013 eV
Free-energy (cav+disp)  :            0.00389771 Eh               0.10606 eV
Corrected G(solv)       :         -876.07874710 Eh          -23839.31468 eV

---------------
SCF CONVERGENCE
---------------

  Last Energy change         ...   -1.7816e-08  Tolerance :   1.0000e-06
  Last MAX-Density change    ...    3.1086e-15  Tolerance :   1.0000e-05
  Last RMS-Density change    ...    7.3683e-17  Tolerance :   1.0000e-06
  Last Orbital Gradient      ...    1.1683e-05  Tolerance :   5.0000e-05
  Last Orbital Rotation      ...    1.1445e-05  Tolerance :   5.0000e-05

             **** THE GBW FILE WAS UPDATED (manual_reactants_359_freq.gbw) ****
             **** DENSITY FILE WAS UPDATED (manual_reactants_359_freq.scfp) ****
             **** ENERGY FILE WAS UPDATED (manual_reactants_359_freq.en.tmp) ****
             **** THE GBW FILE WAS UPDATED (manual_reactants_359_freq.gbw) ****
             **** DENSITY FILE WAS UPDATED (manual_reactants_359_freq.scfp) ****
----------------
ORBITAL ENERGIES
----------------

  NO   OCC          E(Eh)            E(eV) 
   0   2.0000    -101.517027     -2762.4187 
   1   2.0000     -10.266698      -279.3710 
   2   2.0000     -10.223602      -278.1984 
   3   2.0000     -10.219797      -278.0948 
   4   2.0000      -9.364215      -254.8132 
   5   2.0000      -7.100231      -193.2071 
   6   2.0000      -7.099781      -193.1949 
   7   2.0000      -7.099694      -193.1925 
   8   2.0000      -6.872474      -187.0095 
   9   2.0000      -4.888892      -133.0335 
  10   2.0000      -4.875776      -132.6766 
  11   2.0000      -4.875497      -132.6690 
  12   2.0000      -1.915178       -52.1146 
  13   2.0000      -1.911649       -52.0186 
  14   2.0000      -1.911316       -52.0096 
  15   2.0000      -1.900272       -51.7090 
  16   2.0000      -1.900238       -51.7081 
  17   2.0000      -0.810632       -22.0584 
  18   2.0000      -0.695723       -18.9316 
  19   2.0000      -0.682218       -18.5641 
  20   2.0000      -0.667656       -18.1678 
  21   2.0000      -0.565762       -15.3952 
  22   2.0000      -0.463072       -12.6008 
  23   2.0000      -0.442777       -12.0486 
  24   2.0000      -0.418159       -11.3787 
  25   2.0000      -0.390636       -10.6297 
  26   2.0000      -0.356658        -9.7052 
  27   2.0000      -0.351207        -9.5568 
  28   2.0000      -0.305616        -8.3162 
  29   2.0000      -0.255333        -6.9480 
  30   2.0000      -0.255090        -6.9413 
  31   2.0000      -0.210048        -5.7157 
  32   2.0000      -0.208929        -5.6852 
  33   2.0000      -0.206393        -5.6162 
  34   0.0000      -0.011701        -0.3184 
  35   0.0000       0.088554         2.4097 
  36   0.0000       0.130067         3.5393 
  37   0.0000       0.140523         3.8238 
  38   0.0000       0.145609         3.9622 
  39   0.0000       0.177236         4.8228 
  40   0.0000       0.181935         4.9507 
  41   0.0000       0.197700         5.3797 
  42   0.0000       0.221227         6.0199 
  43   0.0000       0.250096         6.8055 
  44   0.0000       0.301655         8.2084 
  45   0.0000       0.363881         9.9017 
  46   0.0000       0.377151        10.2628 
  47   0.0000       0.390292        10.6204 
  48   0.0000       0.407391        11.0857 
  49   0.0000       0.420191        11.4340 
  50   0.0000       0.435729        11.8568 
  51   0.0000       0.438607        11.9351 
  52   0.0000       0.471485        12.8298 
  53   0.0000       0.486958        13.2508 
  54   0.0000       0.532989        14.5034 
  55   0.0000       0.586642        15.9633 
  56   0.0000       0.602041        16.3824 
  57   0.0000       0.634409        17.2632 
  58   0.0000       0.654604        17.8127 
  59   0.0000       0.657559        17.8931 
  60   0.0000       0.667768        18.1709 
  61   0.0000       0.676144        18.3988 
  62   0.0000       0.697813        18.9884 
  63   0.0000       0.704766        19.1776 
  64   0.0000       0.719681        19.5835 
  65   0.0000       0.725840        19.7511 
  66   0.0000       0.732820        19.9410 
  67   0.0000       0.766329        20.8529 
  68   0.0000       0.795574        21.6487 
  69   0.0000       0.801661        21.8143 
  70   0.0000       0.904668        24.6173 
  71   0.0000       0.926385        25.2082 
  72   0.0000       0.927553        25.2400 
  73   0.0000       0.929228        25.2856 
  74   0.0000       0.936169        25.4745 
  75   0.0000       0.953534        25.9470 
  76   0.0000       1.000313        27.2199 
  77   0.0000       1.036205        28.1966 
  78   0.0000       1.061506        28.8850 
  79   0.0000       1.074649        29.2427 
  80   0.0000       1.157836        31.5063 
  81   0.0000       1.186592        32.2888 
  82   0.0000       1.209864        32.9221 
  83   0.0000       1.343194        36.5502 
  84   0.0000       1.500090        40.8195 
  85   0.0000       1.535457        41.7819 
  86   0.0000       1.549172        42.1551 
  87   0.0000       1.552829        42.2546 
  88   0.0000       1.621677        44.1281 
  89   0.0000       1.737220        47.2721 
  90   0.0000       1.775656        48.3181 
  91   0.0000       1.792191        48.7680 
  92   0.0000       1.828838        49.7652 
  93   0.0000       1.832452        49.8636 
  94   0.0000       1.841361        50.1060 
  95   0.0000       1.863801        50.7166 
  96   0.0000       1.891543        51.4715 
  97   0.0000       1.911421        52.0124 
  98   0.0000       1.965175        53.4751 
  99   0.0000       2.029865        55.2354 
 100   0.0000       2.138196        58.1833 
 101   0.0000       2.173967        59.1566 
 102   0.0000       2.265297        61.6419 
 103   0.0000       2.276994        61.9602 
 104   0.0000       2.399038        65.2812 
 105   0.0000       2.412256        65.6408 
 106   0.0000       2.486840        67.6704 
 107   0.0000       2.578358        70.1607 
 108   0.0000       2.607946        70.9658 
 109   0.0000       2.627065        71.4861 
 110   0.0000       2.750714        74.8507 
 111   0.0000       2.870050        78.0980 
 112   0.0000       2.925891        79.6176 
 113   0.0000       2.932786        79.8052 
 114   0.0000       3.014002        82.0152 
 115   0.0000       3.046610        82.9025 
 116   0.0000       3.057954        83.2111 
 117   0.0000      18.656354       507.6652 
 118   0.0000      18.678634       508.2715 
 119   0.0000      18.988925       516.7149 
 120   0.0000      55.955351      1522.6225 

                    ********************************
                    * MULLIKEN POPULATION ANALYSIS *
                    ********************************

-----------------------
MULLIKEN ATOMIC CHARGES
-----------------------
   0 C :   -0.019630
   1 C :   -0.334258
   2 C :   -0.012790
   3 I :   -0.166085
   4 H :    0.059095
   5 H :    0.054197
   6 H :    0.060330
   7 H :    0.075932
   8 H :    0.043327
   9 H :    0.053107
  10 H :    0.051154
  11 Cl:   -0.864379
Sum of atomic charges:   -1.0000000

--------------------------------
MULLIKEN REDUCED ORBITAL CHARGES
--------------------------------
  0 C s       :     3.024962  s :     3.024962
      pz      :     0.979222  p :     2.967201
      px      :     1.025071
      py      :     0.962909
      dz2     :     0.004667  d :     0.027467
      dxz     :     0.006898
      dyz     :     0.006466
      dx2y2   :     0.007105
      dxy     :     0.002331
  1 C s       :     3.295923  s :     3.295923
      pz      :     1.058652  p :     2.997993
      px      :     1.081009
      py      :     0.858333
      dz2     :     0.006861  d :     0.040342
      dxz     :     0.010172
      dyz     :     0.007615
      dx2y2   :     0.009155
      dxy     :     0.006540
  2 C s       :     3.014748  s :     3.014748
      pz      :     1.001055  p :     2.970489
      px      :     0.933451
      py      :     1.035982
      dz2     :     0.003590  d :     0.027554
      dxz     :     0.007235
      dyz     :     0.005819
      dx2y2   :     0.007259
      dxy     :     0.003650
  3 I s       :     3.969339  s :     3.969339
      pz      :     3.909893  p :    11.160979
      px      :     3.907519
      py      :     3.343567
      dz2     :     2.004173  d :    10.035767
      dxz     :     2.001898
      dyz     :     2.010445
      dx2y2   :     2.011117
      dxy     :     2.008135
  4 H s       :     0.917147  s :     0.917147
      pz      :     0.005519  p :     0.023759
      px      :     0.013876
      py      :     0.004363
  5 H s       :     0.922051  s :     0.922051
      pz      :     0.010590  p :     0.023752
      px      :     0.008405
      py      :     0.004756
  6 H s       :     0.915352  s :     0.915352
      pz      :     0.005736  p :     0.024318
      px      :     0.005732
      py      :     0.012850
  7 H s       :     0.898463  s :     0.898463
      pz      :     0.014321  p :     0.025605
      px      :     0.008171
      py      :     0.003113
  8 H s       :     0.932978  s :     0.932978
      pz      :     0.011276  p :     0.023696
      px      :     0.003944
      py      :     0.008475
  9 H s       :     0.922647  s :     0.922647
      pz      :     0.006014  p :     0.024246
      px      :     0.005255
      py      :     0.012977
 10 H s       :     0.925296  s :     0.925296
      pz      :     0.009330  p :     0.023549
      px      :     0.008149
      py      :     0.006070
 11 Cls       :     5.989948  s :     5.989948
      pz      :     3.898930  p :    11.873871
      px      :     3.983137
      py      :     3.991805
      dz2     :     0.000437  d :     0.000560
      dxz     :     0.000077
      dyz     :     0.000032
      dx2y2   :     0.000010
      dxy     :     0.000004


                     *******************************
                     * LOEWDIN POPULATION ANALYSIS *
                     *******************************

----------------------
LOEWDIN ATOMIC CHARGES
----------------------
   0 C :   -0.082142
   1 C :   -0.115191
   2 C :   -0.081577
   3 I :   -0.047657
   4 H :    0.033724
   5 H :    0.031270
   6 H :    0.042793
   7 H :   -0.006645
   8 H :    0.025846
   9 H :    0.040480
  10 H :    0.028288
  11 Cl:   -0.869188

-------------------------------
LOEWDIN REDUCED ORBITAL CHARGES
-------------------------------
  0 C s       :     2.848180  s :     2.848180
      pz      :     1.042046  p :     3.161033
      px      :     1.070728
      py      :     1.048259
      dz2     :     0.011416  d :     0.072928
      dxz     :     0.018037
      dyz     :     0.018814
      dx2y2   :     0.019102
      dxy     :     0.005558
  1 C s       :     2.933266  s :     2.933266
      pz      :     1.077181  p :     3.091864
      px      :     1.090096
      py      :     0.924587
      dz2     :     0.014202  d :     0.090062
      dxz     :     0.023593
      dyz     :     0.018297
      dx2y2   :     0.021548
      dxy     :     0.012422
  2 C s       :     2.848101  s :     2.848101
      pz      :     1.063025  p :     3.160834
      px      :     1.021421
      py      :     1.076388
      dz2     :     0.009007  d :     0.072642
      dxz     :     0.019393
      dyz     :     0.015630
      dx2y2   :     0.019756
      dxy     :     0.008857
  3 I s       :     3.866159  s :     3.866159
      pz      :     3.893369  p :    11.137594
      px      :     3.891957
      py      :     3.352267
      dz2     :     2.005326  d :    10.043904
      dxz     :     2.002183
      dyz     :     2.012242
      dx2y2   :     2.013820
      dxy     :     2.010333
  4 H s       :     0.899934  s :     0.899934
      pz      :     0.015359  p :     0.066342
      px      :     0.038548
      py      :     0.012436
  5 H s       :     0.902203  s :     0.902203
      pz      :     0.030317  p :     0.066527
      px      :     0.022800
      py      :     0.013410
  6 H s       :     0.890953  s :     0.890953
      pz      :     0.015613  p :     0.066253
      px      :     0.014381
      py      :     0.036259
  7 H s       :     0.914286  s :     0.914286
      pz      :     0.050442  p :     0.092359
      px      :     0.028890
      py      :     0.013027
  8 H s       :     0.906661  s :     0.906661
      pz      :     0.032530  p :     0.067493
      px      :     0.012100
      py      :     0.022863
  9 H s       :     0.893235  s :     0.893235
      pz      :     0.015344  p :     0.066285
      px      :     0.014927
      py      :     0.036014
 10 H s       :     0.905187  s :     0.905187
      pz      :     0.026100  p :     0.066525
      px      :     0.024801
      py      :     0.015624
 11 Cls       :     5.982614  s :     5.982614
      pz      :     3.908608  p :    11.885962
      px      :     3.983236
      py      :     3.994117
      dz2     :     0.000494  d :     0.000612
      dxz     :     0.000069
      dyz     :     0.000036
      dx2y2   :     0.000009
      dxy     :     0.000004


                      *****************************
                      * MAYER POPULATION ANALYSIS *
                      *****************************

  NA   - Mulliken gross atomic population
  ZA   - Total nuclear charge
  QA   - Mulliken gross atomic charge
  VA   - Mayer's total valence
  BVA  - Mayer's bonded valence
  FA   - Mayer's free valence

  ATOM       NA         ZA         QA         VA         BVA        FA
  0 C      6.0196     6.0000    -0.0196     3.8852     3.8852    -0.0000
  1 C      6.3343     6.0000    -0.3343     3.9292     3.9292    -0.0000
  2 C      6.0128     6.0000    -0.0128     3.8868     3.8868    -0.0000
  3 I     25.1661    25.0000    -0.1661     1.0038     1.0038     0.0000
  4 H      0.9409     1.0000     0.0591     0.9861     0.9861    -0.0000
  5 H      0.9458     1.0000     0.0542     0.9894     0.9894     0.0000
  6 H      0.9397     1.0000     0.0603     0.9891     0.9891     0.0000
  7 H      0.9241     1.0000     0.0759     1.0895     1.0895    -0.0000
  8 H      0.9567     1.0000     0.0433     1.0194     1.0194    -0.0000
  9 H      0.9469     1.0000     0.0531     0.9948     0.9948    -0.0000
 10 H      0.9488     1.0000     0.0512     0.9892     0.9892    -0.0000
 11 Cl    17.8644    17.0000    -0.8644     0.2591     0.2591     0.0000

  Mayer bond orders larger than 0.100000
B(  0-C ,  1-C ) :   1.0351 B(  0-C ,  4-H ) :   0.9671 B(  0-C ,  5-H ) :   0.9686 
B(  0-C ,  6-H ) :   0.9515 B(  1-C ,  2-C ) :   1.0474 B(  1-C ,  3-I ) :   0.9701 
B(  1-C ,  7-H ) :   0.8601 B(  2-C ,  8-H ) :   0.9584 B(  2-C ,  9-H ) :   0.9510 
B(  2-C , 10-H ) :   0.9667 B(  7-H , 11-Cl) :   0.2316 


------------------
HIRSHFELD ANALYSIS
------------------

Total integrated alpha density =     33.999781223
Total integrated beta density  =     33.999781223

  ATOM     CHARGE      SPIN    
   0 C   -0.074288    0.000000
   1 C    0.035874    0.000000
   2 C   -0.078393    0.000000
   3 I   -0.207968    0.000000
   4 H    0.030505    0.000000
   5 H    0.028778    0.000000
   6 H    0.037999    0.000000
   7 H    0.003569    0.000000
   8 H    0.023129    0.000000
   9 H    0.036017    0.000000
  10 H    0.025540    0.000000
  11 Cl  -0.860325    0.000000

  TOTAL  -0.999562    0.000000

-------
TIMINGS
-------

Total SCF time: 0 days 0 hours 0 min 17 sec 

Total time                  ....      17.529 sec
Sum of individual times     ....      16.911 sec  ( 96.5%)

Fock matrix formation       ....      10.042 sec  ( 57.3%)
  Split-RI-J                ....       1.674 sec  ( 16.7% of F)
  Chain of spheres X        ....       4.900 sec  ( 48.8% of F)
  COS-X 1 center corr.      ....       0.000 sec  (  0.0% of F)
  XC integration            ....       0.575 sec  (  5.7% of F)
    Basis function eval.    ....       0.228 sec  ( 39.7% of XC)
    Density eval.           ....       0.103 sec  ( 17.9% of XC)
    XC-Functional eval.     ....       0.055 sec  (  9.6% of XC)
    XC-Potential eval.      ....       0.144 sec  ( 25.1% of XC)
Diagonalization             ....       0.017 sec  (  0.1%)
Density matrix formation    ....       0.003 sec  (  0.0%)
Population analysis         ....       0.034 sec  (  0.2%)
Initial guess               ....       6.229 sec  ( 35.5%)
Orbital Transformation      ....       0.000 sec  (  0.0%)
Orbital Orthonormalization  ....       0.000 sec  (  0.0%)
DIIS solution               ....       0.005 sec  (  0.0%)
SOSCF solution              ....       0.005 sec  (  0.0%)
Grid generation             ....       0.576 sec  (  3.3%)


-------------------------------------------------------------------------------
                          DFT DISPERSION CORRECTION                            
                                                                               
                              DFTD3 V3.1  Rev 1                                
                          USING Becke-Johnson damping                          
-------------------------------------------------------------------------------
The PBE0 functional is recognized
Active option DFTDOPT                   ...         4   

molecular C6(AA) [au] = 2863.655334 


            DFT-D V3
 parameters
 s6 scaling factor         :     1.0000 
 a1 scaling factor         :     0.4145 
 s8 scaling factor         :     1.2177 
 a2 scaling factor         :     4.8593 
 ad hoc parameters k1-k3   :    16.0000     1.3333    -4.0000 

 Edisp/kcal,au: -6.356216453638  -0.010129274598 
 E6   /kcal   :  -3.715640436 
 E8   /kcal   :  -2.640576017 
 % E8         :  41.543204773 

-------------------------   ----------------
Dispersion correction           -0.010129275
-------------------------   ----------------


-------------------------   --------------------
FINAL SINGLE POINT ENERGY      -876.089094316772
-------------------------   --------------------


                            ***************************************
                            *     ORCA property calculations      *
                            ***************************************

                                    ---------------------
                                    Active property flags
                                    ---------------------
   (+) Dipole Moment


------------------------------------------------------------------------------
                       ORCA ELECTRIC PROPERTIES CALCULATION
------------------------------------------------------------------------------

Dipole Moment Calculation                       ... on
Quadrupole Moment Calculation                   ... off
Polarizability Calculation                      ... off
GBWName                                         ... manual_reactants_359_freq.gbw
Electron density file                           ... manual_reactants_359_freq.scfp
The origin for moment calculation is the CENTER OF MASS  = (-0.045065,  0.013986 -0.020219)

-------------
DIPOLE MOMENT
-------------
                                X             Y             Z
Electronic contribution:     18.02448      71.64619     -54.48581
Nuclear contribution   :    -19.41040     -70.55395      49.65847
                        -----------------------------------------
Total Dipole Moment    :     -1.38592       1.09224      -4.82735
                        -----------------------------------------
Magnitude (a.u.)       :      5.13975
Magnitude (Debye)      :     13.06421



--------------------
Rotational spectrum 
--------------------
 
Rotational constants in cm-1:     0.074939     0.028143     0.023168 
Rotational constants in MHz :  2246.616860   843.693258   694.552229 

 Dipole components along the rotational axes: 
x,y,z [a.u.] :    -4.745510    -1.965004     0.189555 
x,y,z [Debye]:   -12.062127    -4.994644     0.481810 

 
[1631721922.332982] [comp0805:229030:0]            sys.c:618  UCX  ERROR shmget(size=2097152 flags=0xfb0) for mm_recv_desc failed: Operation not permitted, please check shared memory limits by 'ipcs -l'
[1631721922.341087] [comp0805:229028:0]            sys.c:618  UCX  ERROR shmget(size=2097152 flags=0xfb0) for mm_recv_desc failed: Operation not permitted, please check shared memory limits by 'ipcs -l'
[1631721922.352243] [comp0805:229029:0]            sys.c:618  UCX  ERROR shmget(size=2097152 flags=0xfb0) for mm_recv_desc failed: Operation not permitted, please check shared memory limits by 'ipcs -l'
[1631721922.352919] [comp0805:229031:0]            sys.c:618  UCX  ERROR shmget(size=2097152 flags=0xfb0) for mm_recv_desc failed: Operation not permitted, please check shared memory limits by 'ipcs -l'
[1631721922.388161] [comp0805:229030:0]            sys.c:618  UCX  ERROR shmget(size=2097152 flags=0xb80) for ucp_am_bufs failed: Operation not permitted, please check shared memory limits by 'ipcs -l'
[1631721922.388185] [comp0805:229028:0]            sys.c:618  UCX  ERROR shmget(size=2097152 flags=0xb80) for ucp_am_bufs failed: Operation not permitted, please check shared memory limits by 'ipcs -l'


           ************************************************************
           *        Program running with 4 parallel MPI-processes     *
           *              working on a common directory               *
           ************************************************************
[1631721922.425639] [comp0805:229029:0]            sys.c:618  UCX  ERROR shmget(size=2097152 flags=0xb80) for ucp_am_bufs failed: Operation not permitted, please check shared memory limits by 'ipcs -l'
[1631721922.427535] [comp0805:229031:0]            sys.c:618  UCX  ERROR shmget(size=2097152 flags=0xb80) for ucp_am_bufs failed: Operation not permitted, please check shared memory limits by 'ipcs -l'

-------------------------------------------------------------------------------
                               ORCA SCF HESSIAN
-------------------------------------------------------------------------------

Hessian of the Kohn-Sham DFT energy:
Kohn-Sham wavefunction type                      ... RKS
Hartree-Fock exchange scaling                    ...    0.250
Number of operators                              ...    1
Number of atoms                                  ...   12
Basis set dimensions                             ...  121
Integral neglect threshold                       ... 1.0e-10
Integral primitive cutoff                        ... 1.0e-11

Setting up DFT Hessian calculations              ... 
Electron density on the grid                     ... found on disk
Electron density on the final grid               ... found on disk
Building xc-kernel on the grid                   ... done   (      0.0 sec)
Building xc-kernel on the final grid             ... done   (      0.0 sec)
                                                     done   (      0.1 sec)

Nuclear repulsion Hessian                        ... done   (      0.0 sec)

----------------------------------------------
Forming right-hand sides of CP-SCF equations     ...
----------------------------------------------
One electron integral derivatives                ... done   (      3.5 sec)
Transforming the overlap derivative matrices     ... done   (      0.0 sec)
[1631721926.970594] [comp0805:229030:0]            sys.c:618  UCX  ERROR shmget(size=6291456 flags=0xfb0) for mm_recv_desc failed: Operation not permitted, please check shared memory limits by 'ipcs -l'
[1631721926.970733] [comp0805:229029:0]            sys.c:618  UCX  ERROR shmget(size=6291456 flags=0xfb0) for mm_recv_desc failed: Operation not permitted, please check shared memory limits by 'ipcs -l'
Adding tr(S(x)F(y) C-PCM term to the hessian     ... done   (      0.6 sec)
Making the Q(x) pseudodensities                  ... done   (      0.0 sec)
Adding the E*S(x)*S(y) terms to the Hessian      ... done   (      0.0 sec)
Calculating energy weighted overlap derivatives  ... done   (      0.0 sec)
F(y): ECP integral derivatives                   ... done   (      1.2 sec)
Two electron integral derivatives (RI)           ... done   (      2.1 sec)
Exchange-correlation integral derivatives        ... done   (      4.4 sec)
tr(F(y)Q(x)) contribution to the Hessian         ... done   (      0.0 sec)
Response fock operator R(S(x)) (RIJCOSX)         ... done   (      2.7 sec)
XC Response fock operator R(S(x))                ... done   (      1.5 sec)
tr(F(y)S(x)) contribution to the Hessian         ... done   (      0.0 sec)
Transforming and finalizing RHSs                 ... done   (      0.0 sec)

----------------------------------------------
Solving the CP-SCF equations (RIJCOSX)           ...
----------------------------------------------
     CP-SCF ITERATION   0: 
     CP-SCF ITERATION   1:      0.000883346815
     CP-SCF ITERATION   2:      0.000086213594
     CP-SCF ITERATION   3:      0.000008254641
     CP-SCF ITERATION   4:      0.000000973628

                                                 ... done   (     10.6 sec)
Forming perturbed density Hessian contributions  ... done   (      0.0 sec)
Calculating [Q*(d^2 A/dXdY)*Q  ] C-PCM term      ... done   (      0.0 sec)
Calculating [d^2(V_N)/(dXdY)*Q ] C-PCM term      ... done   (      0.0 sec)
Calculating [d^2(V_el)/(dXdY)*Q] C-PCM term      ... done   (      0.3 sec)
Calculating C-PCM term that depends on dQ/dX     ... done   (      0.0 sec)
2nd integral derivative contribs (RI)            ... done   (     10.1 sec)
Exchange-correlation Hessian                     ... done   (      4.7 sec)
ECP integral 2nd derivatives                     ... done   (      3.2 sec)
Dispersion correction in the Hessian             ... done   (      0.6 sec)
Dipol derivatives                                ... done   (      0.2 sec)

Total SCF Hessian time: 0 days 0 hours 0 min 47 sec 

Writing the Hessian file to the disk             ... done


Maximum memory used throughout the entire calculation: 137.4 MB

-----------------------
VIBRATIONAL FREQUENCIES
-----------------------

Scaling factor for frequencies =  1.000000000  (already applied!)

   0:         0.00 cm**-1
   1:         0.00 cm**-1
   2:         0.00 cm**-1
   3:         0.00 cm**-1
   4:         0.00 cm**-1
   5:         0.00 cm**-1
   6:       -24.52 cm**-1 ***imaginary mode***
   7:        38.52 cm**-1
   8:       121.43 cm**-1
   9:       231.86 cm**-1
  10:       247.70 cm**-1
  11:       260.89 cm**-1
  12:       281.36 cm**-1
  13:       395.20 cm**-1
  14:       480.40 cm**-1
  15:       904.35 cm**-1
  16:       933.58 cm**-1
  17:       943.56 cm**-1
  18:      1033.20 cm**-1
  19:      1155.82 cm**-1
  20:      1169.25 cm**-1
  21:      1244.10 cm**-1
  22:      1343.30 cm**-1
  23:      1380.96 cm**-1
  24:      1391.15 cm**-1
  25:      1430.16 cm**-1
  26:      1436.33 cm**-1
  27:      1441.89 cm**-1
  28:      1452.61 cm**-1
  29:      3037.50 cm**-1
  30:      3041.62 cm**-1
  31:      3062.65 cm**-1
  32:      3130.37 cm**-1
  33:      3132.71 cm**-1
  34:      3161.53 cm**-1
  35:      3176.14 cm**-1


------------
NORMAL MODES
------------

These modes are the Cartesian displacements weighted by the diagonal matrix
M(i,i)=1/sqrt(m[i]) where m[i] is the mass of the displaced atom
Thus, these vectors are normalized but *not* orthogonal

                  0          1          2          3          4          5    
      0       0.000000   0.000000   0.000000   0.000000   0.000000   0.000000
      1       0.000000   0.000000   0.000000   0.000000   0.000000   0.000000
      2       0.000000   0.000000   0.000000   0.000000   0.000000   0.000000
      3       0.000000   0.000000   0.000000   0.000000   0.000000   0.000000
      4       0.000000   0.000000   0.000000   0.000000   0.000000   0.000000
      5       0.000000   0.000000   0.000000   0.000000   0.000000   0.000000
      6       0.000000   0.000000   0.000000   0.000000   0.000000   0.000000
      7       0.000000   0.000000   0.000000   0.000000   0.000000   0.000000
      8       0.000000   0.000000   0.000000   0.000000   0.000000   0.000000
      9       0.000000   0.000000   0.000000   0.000000   0.000000   0.000000
     10       0.000000   0.000000   0.000000   0.000000   0.000000   0.000000
     11       0.000000   0.000000   0.000000   0.000000   0.000000   0.000000
     12       0.000000   0.000000   0.000000   0.000000   0.000000   0.000000
     13       0.000000   0.000000   0.000000   0.000000   0.000000   0.000000
     14       0.000000   0.000000   0.000000   0.000000   0.000000   0.000000
     15       0.000000   0.000000   0.000000   0.000000   0.000000   0.000000
     16       0.000000   0.000000   0.000000   0.000000   0.000000   0.000000
     17       0.000000   0.000000   0.000000   0.000000   0.000000   0.000000
     18       0.000000   0.000000   0.000000   0.000000   0.000000   0.000000
     19       0.000000   0.000000   0.000000   0.000000   0.000000   0.000000
     20       0.000000   0.000000   0.000000   0.000000   0.000000   0.000000
     21       0.000000   0.000000   0.000000   0.000000   0.000000   0.000000
     22       0.000000   0.000000   0.000000   0.000000   0.000000   0.000000
     23       0.000000   0.000000   0.000000   0.000000   0.000000   0.000000
     24       0.000000   0.000000   0.000000   0.000000   0.000000   0.000000
     25       0.000000   0.000000   0.000000   0.000000   0.000000   0.000000
     26       0.000000   0.000000   0.000000   0.000000   0.000000   0.000000
     27       0.000000   0.000000   0.000000   0.000000   0.000000   0.000000
     28       0.000000   0.000000   0.000000   0.000000   0.000000   0.000000
     29       0.000000   0.000000   0.000000   0.000000   0.000000   0.000000
     30       0.000000   0.000000   0.000000   0.000000   0.000000   0.000000
     31       0.000000   0.000000   0.000000   0.000000   0.000000   0.000000
     32       0.000000   0.000000   0.000000   0.000000   0.000000   0.000000
     33       0.000000   0.000000   0.000000   0.000000   0.000000   0.000000
     34       0.000000   0.000000   0.000000   0.000000   0.000000   0.000000
     35       0.000000   0.000000   0.000000   0.000000   0.000000   0.000000
                  6          7          8          9         10         11    
      0      -0.151988  -0.062112  -0.094066  -0.055181   0.086957   0.040882
      1       0.040837   0.036095   0.094891  -0.000179   0.151958   0.191235
      2      -0.277059  -0.079662  -0.259862  -0.016415  -0.044074   0.023642
      3      -0.006830   0.129162  -0.067424  -0.023958   0.037508  -0.119109
      4      -0.101754  -0.017030  -0.022410  -0.010104   0.057774   0.061585
      5      -0.129142  -0.004556  -0.143708  -0.002935   0.033158   0.108882
      6       0.051259   0.226180  -0.089078  -0.021090   0.039385  -0.147558
      7      -0.103722  -0.046900  -0.019005  -0.089575   0.098179  -0.186488
      8       0.022498   0.252829  -0.194006   0.011393   0.030172   0.107245
      9       0.016848  -0.004900  -0.006437   0.011785  -0.018076   0.024390
     10      -0.039987   0.018418  -0.003359   0.011042  -0.036679  -0.005984
     11       0.074838  -0.042470  -0.026851  -0.000662   0.001709  -0.022429
     12      -0.185387  -0.124343  -0.089104  -0.055139   0.188111   0.058836
     13       0.035202   0.053167   0.073210  -0.056923  -0.070089   0.402674
     14      -0.373969  -0.263997  -0.241012  -0.005435   0.286045   0.039085
     15      -0.211547  -0.211294  -0.052705  -0.033127   0.441179   0.034832
     16       0.193807   0.079991   0.265162   0.057363   0.476908   0.200268
     17      -0.191424   0.045672  -0.246145  -0.018003  -0.229088   0.030006
     18      -0.174022   0.003744  -0.180138  -0.125475  -0.323486   0.185627
     19       0.002662   0.017658   0.062598   0.009575   0.166682   0.096594
     20      -0.390778  -0.079064  -0.406738  -0.042243  -0.307558  -0.111922
     21       0.059356   0.259396  -0.087429  -0.008099   0.014983  -0.115669
     22      -0.222753  -0.054567  -0.122653   0.008072   0.011685   0.081653
     23      -0.210847  -0.123419  -0.146172  -0.013059   0.043308   0.111234
     24       0.207771   0.408124  -0.100193  -0.190038   0.040431  -0.222148
     25      -0.276829  -0.129852  -0.137271   0.301470   0.230156  -0.449102
     26       0.156050   0.318764  -0.105097  -0.288065  -0.068243   0.302444
     27       0.004607   0.280072  -0.173504   0.270093   0.058930  -0.032661
     28      -0.143215  -0.071023  -0.047074  -0.023866   0.145897  -0.321527
     29      -0.140825   0.231990  -0.360711   0.490902   0.191685  -0.187924
     30       0.004810   0.094067  -0.022752  -0.136961   0.025931  -0.189085
     31       0.097084   0.021877   0.131828  -0.630577  -0.014068  -0.062875
     32       0.159909   0.409313  -0.185291  -0.131470  -0.010073   0.204824
     33      -0.015496  -0.101984   0.127997  -0.000302  -0.003492  -0.002839
     34       0.207836  -0.054143  -0.012514   0.003828   0.000042   0.000434
     35      -0.109679   0.079563   0.346645   0.005276  -0.009969  -0.011973
                 12         13         14         15         16         17    
      0      -0.030508   0.122583   0.028485   0.094035   0.057583  -0.053156
      1      -0.095562  -0.081016  -0.014059  -0.138963  -0.020075  -0.104576
      2       0.027689  -0.083896  -0.051570  -0.125772   0.042120   0.003496
      3      -0.023878  -0.166993  -0.000827   0.141676  -0.000845  -0.036115
      4      -0.058023  -0.039679  -0.320507   0.129772  -0.012809   0.028597
      5      -0.003634  -0.137137   0.219269   0.039409  -0.002607   0.040660
      6      -0.015016  -0.074435  -0.046304  -0.160674  -0.022754   0.064504
      7      -0.075622   0.067806   0.037143   0.033495   0.007729   0.095947
      8       0.026170   0.128151   0.025761   0.122851  -0.085315  -0.014112
      9       0.007639   0.005608   0.003120   0.000130  -0.000325  -0.000789
     10       0.027109   0.005131   0.023853  -0.001047   0.000296   0.000520
     11      -0.006514   0.002180  -0.013180   0.000955   0.000206   0.000786
     12       0.067405   0.212660   0.015365  -0.041218  -0.070123   0.011041
     13      -0.480755   0.145644   0.221331  -0.370759  -0.114054   0.312511
     14       0.379168   0.134900  -0.127577  -0.499945  -0.307533   0.106956
     15       0.339107   0.248288  -0.028882  -0.082636  -0.151420   0.135478
     16       0.139563  -0.314162   0.251696   0.064998   0.321847   0.116567
     17      -0.191527  -0.239201   0.063134   0.052823   0.287198  -0.085771
     18      -0.540202   0.315687   0.139298  -0.110315  -0.137644   0.142999
     19       0.012213  -0.125338  -0.191740  -0.109787  -0.035532  -0.328172
     20      -0.069202  -0.053130  -0.412213  -0.203610  -0.144008  -0.436355
     21      -0.013910  -0.142375   0.010634   0.128710  -0.251974  -0.077268
     22      -0.035930  -0.020555  -0.275646   0.231660   0.145919   0.054340
     23      -0.007387  -0.154832   0.225098   0.079671   0.247664   0.083734
     24       0.043517   0.256931  -0.016593  -0.519209   0.414905  -0.255982
     25      -0.227524   0.151138   0.209232   0.038899  -0.093186  -0.149443
     26       0.141892   0.077597  -0.103012   0.114489   0.008214   0.156222
     27      -0.049860  -0.032361  -0.405610  -0.206449   0.198013   0.503425
     28      -0.119903   0.129767   0.184784  -0.001993   0.011423  -0.129791
     29      -0.140779   0.359776   0.138214  -0.031261   0.147188  -0.255188
     30      -0.023275  -0.287365   0.199458  -0.045907  -0.391166  -0.066606
     31       0.079935   0.050716   0.118015  -0.011127   0.043042  -0.183045
     32       0.107047   0.322393  -0.166917  -0.016887   0.284865  -0.016253
     33       0.001209   0.003941  -0.002395  -0.000950   0.000721   0.000039
     34      -0.001402  -0.000937   0.000666   0.000009  -0.000483   0.000105
     35       0.000067   0.010941  -0.007469  -0.001428  -0.000107  -0.000293
                 18         19         20         21         22         23    
      0      -0.021501   0.119467  -0.014443  -0.032275  -0.030680   0.003207
      1      -0.056624   0.037191   0.029593   0.028971  -0.018688   0.082092
      2       0.081431   0.029783   0.124677  -0.048796  -0.046608   0.077209
      3      -0.031961  -0.161012   0.154285   0.022220   0.049637  -0.017647
      4       0.055835  -0.106382  -0.102810  -0.076912  -0.043615  -0.007488
      5      -0.070317  -0.075775  -0.156950   0.057923  -0.065303  -0.003841
      6       0.023884   0.070303  -0.118940  -0.034652   0.081348   0.094611
      7      -0.088789   0.070677   0.062180   0.033038  -0.003561   0.002228
      8       0.018167   0.072218   0.014484  -0.046529   0.020333  -0.034259
      9       0.001313   0.000153  -0.000489   0.000158  -0.000039   0.000005
     10      -0.000723  -0.001153   0.000568  -0.002403   0.000002  -0.000011
     11       0.001812   0.000985   0.000295   0.001854   0.000109   0.000018
     12      -0.028337  -0.008692   0.004734   0.034431   0.066683  -0.108575
     13       0.282197  -0.213646   0.270486  -0.027696   0.178128  -0.303065
     14       0.001701  -0.264057   0.151657   0.162310   0.216323  -0.191048
     15       0.051525  -0.232662   0.013026  -0.008409  -0.030811   0.052905
     16       0.312852   0.181512   0.334512  -0.159160   0.202810  -0.414935
     17       0.117122   0.334429   0.192820  -0.109425   0.021335  -0.098300
     18       0.001763  -0.264330   0.022945   0.052689   0.054042   0.023476
     19      -0.231523   0.174240  -0.026353   0.053280   0.097635  -0.143407
     20      -0.367772   0.108778  -0.008145   0.089019   0.288855  -0.452895
     21       0.163498   0.044106   0.368040   0.445869  -0.409471   0.036059
     22       0.448791   0.275790  -0.340674   0.781323   0.287377  -0.022362
     23      -0.171578  -0.195683  -0.403623  -0.124477   0.409127  -0.054658
     24       0.147079  -0.305529  -0.266454   0.092047  -0.359103  -0.320342
     25       0.154543   0.005997  -0.083237  -0.108158   0.022856  -0.081919
     26      -0.160429   0.095168   0.120953   0.062019  -0.008973   0.017889
     27      -0.391879   0.153096   0.032505   0.095092  -0.342421  -0.347711
     28       0.074531  -0.086058  -0.006075   0.012951   0.095830   0.159621
     29       0.084848  -0.308762  -0.026300   0.034983  -0.059978   0.038301
     30       0.252255   0.250019  -0.346031  -0.190011  -0.176464  -0.285304
     31       0.141935  -0.201754  -0.102505  -0.042762  -0.096590  -0.111110
     32      -0.096618  -0.225292   0.142867   0.071766   0.204371   0.264097
     33      -0.000248   0.000059  -0.000461  -0.000253   0.000207  -0.000182
     34      -0.000709  -0.000244   0.000393  -0.000843  -0.000098   0.000088
     35       0.000447   0.000538   0.000132   0.000740   0.000185   0.000235
                 24         25         26         27         28         29    
      0       0.049697  -0.012176  -0.027739   0.021615  -0.015119   0.005933
      1      -0.086036  -0.016548  -0.007130  -0.018430  -0.014038   0.047228
      2      -0.057684   0.017291  -0.025760  -0.020322   0.042633   0.021711
      3      -0.076114   0.002548  -0.051180   0.002357  -0.013061  -0.004341
      4       0.058239   0.014378   0.026224   0.021277  -0.030882   0.000358
      5       0.088093   0.004517   0.035697   0.043703   0.013342  -0.007315
      6       0.078501  -0.002395   0.030544   0.009828   0.010468  -0.010061
      7      -0.007504   0.048512  -0.004281  -0.001405  -0.018264  -0.005383
      8      -0.083033   0.004219  -0.008683   0.029494   0.000288   0.004060
      9       0.000123  -0.000003   0.000090  -0.000047   0.000023   0.000001
     10      -0.000034  -0.000007  -0.000032  -0.000044  -0.000046  -0.000014
     11      -0.000186  -0.000041  -0.000042  -0.000093   0.000049   0.000011
     12       0.096065  -0.091296  -0.016451   0.064926  -0.191132   0.400581
     13       0.334641   0.092002  -0.474030   0.177039   0.179338  -0.015408
     14       0.021427  -0.247965   0.060538   0.086328  -0.524837  -0.132173
     15      -0.118796   0.249377   0.057612  -0.133589   0.483036  -0.288344
     16       0.147066   0.078918   0.476172  -0.133324   0.078439   0.109291
     17       0.130205  -0.162323   0.050039   0.065387  -0.320563  -0.374282
     18      -0.313192   0.001306   0.587724  -0.229324  -0.056873  -0.186898
     19       0.135426   0.037930  -0.105881   0.039450   0.099325  -0.647602
     20       0.222772   0.146081   0.174598  -0.050566   0.272744   0.263492
     21       0.309308  -0.013969   0.154738   0.115967   0.057164   0.057103
     22      -0.227741  -0.020900  -0.103991  -0.086083   0.058878  -0.012647
     23      -0.309052   0.010890  -0.177800  -0.068873  -0.023689   0.067117
     24      -0.257291   0.342987   0.011324   0.251961  -0.148063  -0.000925
     25      -0.241109  -0.285987   0.096731   0.384976   0.205237  -0.057854
     26       0.088452   0.260184  -0.088415  -0.264208  -0.172949  -0.073358
     27      -0.171831  -0.340789  -0.086546  -0.162216   0.138570   0.048506
     28       0.200317   0.126391  -0.007971  -0.140233  -0.084157   0.160146
     29       0.324510  -0.044775  -0.138318  -0.566454  -0.092218  -0.052109
     30      -0.165978  -0.014807  -0.132576  -0.291937  -0.066833   0.070861
     31       0.065360  -0.571919  -0.057395  -0.251196   0.220637  -0.037560
     32       0.185290  -0.267461   0.115590   0.183190   0.181522   0.078414
     33      -0.000410   0.000310  -0.000306  -0.000358  -0.000219  -0.000002
     34       0.000312  -0.000219   0.000110  -0.000066   0.000028   0.000013
     35      -0.000375   0.000010  -0.000167  -0.000088   0.000097   0.000046
                 30         31         32         33         34         35    
      0       0.002280   0.004877   0.010706   0.009139   0.092533   0.001323
      1       0.008908  -0.011541   0.045259   0.031490  -0.007923   0.000335
      2       0.006840   0.005247  -0.058360  -0.039900   0.012978   0.000361
      3      -0.013300  -0.053897  -0.001499  -0.005381   0.004399  -0.002287
      4       0.003191   0.012201   0.001155   0.003862  -0.000368  -0.000165
      5      -0.013702  -0.062175  -0.000681  -0.008213   0.004680  -0.002531
      6       0.045960  -0.006409   0.012925  -0.017637   0.000069  -0.026719
      7       0.017419  -0.009374  -0.047320   0.066903  -0.000290  -0.037320
      8      -0.013200   0.008205   0.019514  -0.026690   0.001255  -0.081889
      9       0.000006   0.000035  -0.000004  -0.000015  -0.000009   0.000003
     10      -0.000022  -0.000029  -0.000017  -0.000073   0.000001   0.000004
     11       0.000018   0.000053   0.000005   0.000032  -0.000003   0.000009
     12       0.081481  -0.076675  -0.314003  -0.228928  -0.757218  -0.011087
     13      -0.005367  -0.000144   0.024881   0.016869   0.040171   0.000651
     14      -0.027679   0.026357   0.097137   0.072324   0.261421   0.003825
     15      -0.072754  -0.012005   0.323179   0.216546  -0.337579  -0.004500
     16       0.027545   0.009175  -0.105901  -0.068767   0.122861   0.002420
     17      -0.093757  -0.007278   0.409206   0.276477  -0.455619  -0.004281
     18      -0.035435   0.041856  -0.136400  -0.095905  -0.009425  -0.000953
     19      -0.124848   0.135594  -0.467912  -0.333178  -0.074169  -0.002594
     20       0.050134  -0.055951   0.183113   0.128876   0.031607   0.001430
     21       0.142459   0.624057   0.011526   0.073452  -0.042987   0.022283
     22      -0.033751  -0.149796  -0.003060  -0.019385   0.008819  -0.004553
     23       0.156814   0.709064   0.015801   0.085599  -0.049573   0.021908
     24      -0.003320  -0.000102  -0.001967   0.003586   0.000439  -0.021684
     25       0.240203  -0.054640   0.101904  -0.148146  -0.004313   0.517996
     26       0.312904  -0.065569   0.149674  -0.213535  -0.005540   0.680797
     27      -0.191708   0.055605   0.109555  -0.158451   0.001002   0.027263
     28      -0.627893   0.180857   0.341271  -0.487699   0.004302   0.094212
     29       0.206021  -0.056938  -0.110292   0.159251  -0.000724  -0.042976
     30      -0.336599   0.028559  -0.255141   0.357630  -0.008991   0.320581
     31       0.174885  -0.014560   0.121375  -0.168949   0.004062  -0.166143
     32      -0.369187   0.023732  -0.274151   0.378824  -0.006898   0.340395
     33      -0.000036  -0.000149   0.000001  -0.000019   0.000001  -0.000069
     34       0.000006   0.000029   0.000009   0.000002   0.000012   0.000005
     35       0.000043   0.000014  -0.000002  -0.000013   0.000010  -0.000019


-----------
IR SPECTRUM
-----------

 Mode    freq (cm**-1)   T**2         TX         TY         TZ
-------------------------------------------------------------------
   7:        38.52    7.093162  (  2.288301   0.669454  -1.186875)
   8:       121.43   42.688219  ( -2.282344   0.738679  -6.077292)
   9:       231.86    1.481893  ( -1.147154  -0.396858  -0.091838)
  10:       247.70    4.482009  (  0.695155   1.991116   0.184996)
  11:       260.89    1.248479  (  0.024764  -0.440798   1.026432)
  12:       281.36    3.387332  ( -0.713246  -1.668406   0.308273)
  13:       395.20    1.578061  (  0.151137  -1.238900  -0.142636)
  14:       480.40   52.850870  ( -3.188611  -6.180835   2.116817)
  15:       904.35   27.722270  (  0.730381   4.919248  -1.729108)
  16:       933.58   13.410662  (  0.153158  -0.362019   3.640899)
  17:       943.56    0.373695  ( -0.017937   0.145131   0.593557)
  18:      1033.20   48.764379  (  2.075907   6.084192  -2.727195)
  19:      1155.82  118.730344  ( -5.458533  -9.425433   0.309800)
  20:      1169.25   12.791096  (  0.063070   0.619145  -3.521900)
  21:      1244.10  166.430241  ( -3.717813 -11.715179   3.919527)
  22:      1343.30    9.987399  ( -0.136588  -0.427975   3.128191)
  23:      1380.96   10.539457  ( -2.488050   0.066195  -2.084390)
  24:      1391.15   21.614584  ( -3.599528   2.937653   0.167861)
  25:      1430.16    3.933063  (  1.588799  -1.160984  -0.246774)
  26:      1436.33    2.203522  (  1.020633  -0.363969  -1.014573)
  27:      1441.89   23.542349  ( -3.172880   0.646739  -3.613435)
  28:      1452.61    6.570818  ( -1.333649   1.016005  -1.939054)
  29:      3037.50   29.008936  (  0.118555   3.983698   3.622848)
  30:      3041.62   45.725617  (  5.558697   2.735406   2.709992)
  31:      3062.65  241.114640  (  3.300573  -4.022895  14.630009)
  32:      3130.37    5.435467  (  1.540642  -0.665677  -1.618259)
  33:      3132.71   16.970387  ( -0.706968   3.506836  -2.042714)
  34:      3161.53   14.826260  (  3.831257  -0.146584  -0.355303)
  35:      3176.14    7.847064  ( -0.645584  -1.624996  -2.188532)

The first frequency considered to be a vibration is 7
The total number of vibrations considered is 29


--------------------------
THERMOCHEMISTRY AT 298.15K
--------------------------

Temperature         ... 298.15 K
Pressure            ... 1.00 atm
Total Mass          ... 205.44 AMU

Throughout the following assumptions are being made:
  (1) The electronic state is orbitally nondegenerate
  (2) There are no thermally accessible electronically excited states
  (3) Hindered rotations indicated by low frequency modes are not
      treated as such but are treated as vibrations and this may
      cause some error
  (4) All equations used are the standard statistical mechanics
      equations for an ideal gas
  (5) All vibrations are strictly harmonic

freq.      38.52  E(vib)   ...       0.54 
freq.     121.43  E(vib)   ...       0.44 
freq.     231.86  E(vib)   ...       0.32 
freq.     247.70  E(vib)   ...       0.31 
freq.     260.89  E(vib)   ...       0.30 
freq.     281.36  E(vib)   ...       0.28 
freq.     395.20  E(vib)   ...       0.20 
freq.     480.40  E(vib)   ...       0.15 
freq.     904.35  E(vib)   ...       0.03 
freq.     933.58  E(vib)   ...       0.03 
freq.     943.56  E(vib)   ...       0.03 
freq.    1033.20  E(vib)   ...       0.02 
freq.    1155.82  E(vib)   ...       0.01 
freq.    1169.25  E(vib)   ...       0.01 
freq.    1244.10  E(vib)   ...       0.01 
freq.    1343.30  E(vib)   ...       0.01 
freq.    1380.96  E(vib)   ...       0.01 
freq.    1391.15  E(vib)   ...       0.00 
freq.    1430.16  E(vib)   ...       0.00 
freq.    1436.33  E(vib)   ...       0.00 
freq.    1441.89  E(vib)   ...       0.00 
freq.    1452.61  E(vib)   ...       0.00 
freq.    3037.50  E(vib)   ...       0.00 
freq.    3041.62  E(vib)   ...       0.00 
freq.    3062.65  E(vib)   ...       0.00 
freq.    3130.37  E(vib)   ...       0.00 
freq.    3132.71  E(vib)   ...       0.00 
freq.    3161.53  E(vib)   ...       0.00 
freq.    3176.14  E(vib)   ...       0.00 

------------
INNER ENERGY
------------

The inner energy is: U= E(el) + E(ZPE) + E(vib) + E(rot) + E(trans)
    E(el)   - is the total energy from the electronic structure calculation
              = E(kin-el) + E(nuc-el) + E(el-el) + E(nuc-nuc)
    E(ZPE)  - the the zero temperature vibrational energy from the frequency calculation
    E(vib)  - the the finite temperature correction to E(ZPE) due to population
              of excited vibrational states
    E(rot)  - is the rotational thermal energy
    E(trans)- is the translational thermal energy

Summary of contributions to the inner energy U:
Electronic energy                ...   -876.08909432 Eh
Zero point energy                ...      0.09354188 Eh      58.70 kcal/mol
Thermal vibrational correction   ...      0.00430651 Eh       2.70 kcal/mol
Thermal rotational correction    ...      0.00141627 Eh       0.89 kcal/mol
Thermal translational correction ...      0.00141627 Eh       0.89 kcal/mol
-----------------------------------------------------------------------
Total thermal energy                   -875.98841339 Eh


Summary of corrections to the electronic energy:
(perhaps to be used in another calculation)
Total thermal correction                  0.00713905 Eh       4.48 kcal/mol
Non-thermal (ZPE) correction              0.09354188 Eh      58.70 kcal/mol
-----------------------------------------------------------------------
Total correction                          0.10068093 Eh      63.18 kcal/mol


--------
ENTHALPY
--------

The enthalpy is H = U + kB*T
                kB is Boltzmann's constant
Total free energy                 ...   -875.98841339 Eh 
Thermal Enthalpy correction       ...      0.00094421 Eh       0.59 kcal/mol
-----------------------------------------------------------------------
Total Enthalpy                    ...   -875.98746918 Eh


Note: Only C1 symmetry has been detected, increase convergence thresholds 
      if your molecule has a higher symmetry. Symmetry factor of 1.0 is   
      used for the rotational entropy correction. 
 

Note: Rotational entropy computed according to Herzberg 
Infrared and Raman Spectra, Chapter V,1, Van Nostrand Reinhold, 1945 
Point Group:  C1, Symmetry Number:   1  
Rotational constants in cm-1:     0.074939     0.028143     0.023168 

Vibrational entropy computed according to the QRRHO of S. Grimme
Chem.Eur.J. 2012 18 9955


-------
ENTROPY
-------

The entropy contributions are T*S = T*(S(el)+S(vib)+S(rot)+S(trans))
     S(el)   - electronic entropy
     S(vib)  - vibrational entropy
     S(rot)  - rotational entropy
     S(trans)- translational entropy
The entropies will be listed as mutliplied by the temperature to get
units of energy

Electronic entropy                ...      0.00000000 Eh      0.00 kcal/mol
Vibrational entropy               ...      0.00760224 Eh      4.77 kcal/mol
Rotational entropy                ...      0.01419704 Eh      8.91 kcal/mol
Translational entropy             ...      0.01989095 Eh     12.48 kcal/mol
-----------------------------------------------------------------------
Final entropy term                ...      0.04169023 Eh     26.16 kcal/mol

In case the symmetry of your molecule has not been determined correctly
or in case you have a reason to use a different symmetry number we print 
out the resulting rotational entropy values for sn=1,12 :
 --------------------------------------------------------
|  sn= 1 | S(rot)=       0.01419704 Eh      8.91 kcal/mol|
|  sn= 2 | S(rot)=       0.01354258 Eh      8.50 kcal/mol|
|  sn= 3 | S(rot)=       0.01315975 Eh      8.26 kcal/mol|
|  sn= 4 | S(rot)=       0.01288812 Eh      8.09 kcal/mol|
|  sn= 5 | S(rot)=       0.01267744 Eh      7.96 kcal/mol|
|  sn= 6 | S(rot)=       0.01250529 Eh      7.85 kcal/mol|
|  sn= 7 | S(rot)=       0.01235975 Eh      7.76 kcal/mol|
|  sn= 8 | S(rot)=       0.01223367 Eh      7.68 kcal/mol|
|  sn= 9 | S(rot)=       0.01212246 Eh      7.61 kcal/mol|
|  sn=10 | S(rot)=       0.01202298 Eh      7.54 kcal/mol|
|  sn=11 | S(rot)=       0.01193299 Eh      7.49 kcal/mol|
|  sn=12 | S(rot)=       0.01185084 Eh      7.44 kcal/mol|
 --------------------------------------------------------


-------------------
GIBBS FREE ENERGY
-------------------

The Gibbs free energy is G = H - T*S

Total enthalpy                    ...   -875.98746918 Eh 
Total entropy correction          ...     -0.04169023 Eh    -26.16 kcal/mol
-----------------------------------------------------------------------
Final Gibbs free energy         ...   -876.02915941 Eh

For completeness - the Gibbs free energy minus the electronic energy
G-E(el)                           ...      0.05993491 Eh     37.61 kcal/mol

[1631721970.838185] [comp0805:229093:0]            sys.c:618  UCX  ERROR shmget(size=2097152 flags=0xfb0) for mm_recv_desc failed: Operation not permitted, please check shared memory limits by 'ipcs -l'
[1631721970.846327] [comp0805:229095:0]            sys.c:618  UCX  ERROR shmget(size=2097152 flags=0xfb0) for mm_recv_desc failed: Operation not permitted, please check shared memory limits by 'ipcs -l'
[1631721970.872842] [comp0805:229096:0]            sys.c:618  UCX  ERROR shmget(size=2097152 flags=0xfb0) for mm_recv_desc failed: Operation not permitted, please check shared memory limits by 'ipcs -l'
[1631721970.873755] [comp0805:229094:0]            sys.c:618  UCX  ERROR shmget(size=2097152 flags=0xfb0) for mm_recv_desc failed: Operation not permitted, please check shared memory limits by 'ipcs -l'
[1631721970.882096] [comp0805:229093:0]            sys.c:618  UCX  ERROR shmget(size=2097152 flags=0xb80) for ucp_am_bufs failed: Operation not permitted, please check shared memory limits by 'ipcs -l'
[1631721970.882836] [comp0805:229094:0]            sys.c:618  UCX  ERROR shmget(size=2097152 flags=0xb80) for ucp_am_bufs failed: Operation not permitted, please check shared memory limits by 'ipcs -l'
[1631721970.883693] [comp0805:229096:0]            sys.c:618  UCX  ERROR shmget(size=2097152 flags=0xb80) for ucp_am_bufs failed: Operation not permitted, please check shared memory limits by 'ipcs -l'
[1631721970.884420] [comp0805:229095:0]            sys.c:618  UCX  ERROR shmget(size=2097152 flags=0xb80) for ucp_am_bufs failed: Operation not permitted, please check shared memory limits by 'ipcs -l'

Timings for individual modules:

Sum of individual times         ...       72.837 sec (=   1.214 min)
GTO integral calculation        ...        3.969 sec (=   0.066 min)   5.4 %
SCF iterations                  ...       20.476 sec (=   0.341 min)  28.1 %
Analytical frequency calculation...       48.392 sec (=   0.807 min)  66.4 %
                             ****ORCA TERMINATED NORMALLY****
TOTAL RUN TIME: 0 days 0 hours 1 minutes 14 seconds 267 msec
