
                                 *****************
                                 * O   R   C   A *
                                 *****************

           --- An Ab Initio, DFT and Semiempirical electronic structure package ---

                  #######################################################
                  #                        -***-                        #
                  #          Department of theory and spectroscopy      #
                  #               Directorship: Frank Neese             #
                  #        Max Planck Institute fuer Kohlenforschung    #
                  #                Kaiser Wilhelm Platz 1               #
                  #                 D-45470 Muelheim/Ruhr               #
                  #                      Germany                        #
                  #                                                     #
                  #                  All rights reserved                #
                  #                        -***-                        #
                  #######################################################


                         Program Version 4.2.1 -  RELEASE  -


 With contributions from (in alphabetic order):
   Daniel Aravena         : Magnetic Suceptibility
   Michael Atanasov       : Ab Initio Ligand Field Theory (pilot matlab implementation)
   Alexander A. Auer      : GIAO ZORA, VPT2
   Ute Becker             : Parallelization
   Giovanni Bistoni       : ED, misc. LED, open-shell LED, HFLD
   Martin Brehm           : Molecular dynamics
   Dmytro Bykov           : SCF Hessian
   Vijay G. Chilkuri      : MRCI spin determinant printing, contributions to CSF-ICE
   Dipayan Datta          : RHF DLPNO-CCSD density
   Achintya Kumar Dutta   : EOM-CC, STEOM-CC
   Dmitry Ganyushin       : Spin-Orbit,Spin-Spin,Magnetic field MRCI
   Miquel Garcia          : C-PCM Hessian, Gaussian charge scheme
   Yang Guo               : DLPNO-NEVPT2, CIM, IAO-localization
   Andreas Hansen         : Spin unrestricted coupled pair/coupled cluster methods
   Benjamin Helmich-Paris : CASSCF linear response (MC-RPA)
   Lee Huntington         : MR-EOM, pCC
   Robert Izsak           : Overlap fitted RIJCOSX, COSX-SCS-MP3, EOM
   Christian Kollmar      : KDIIS, OOCD, Brueckner-CCSD(T), CCSD density
   Simone Kossmann        : Meta GGA functionals, TD-DFT gradient, OOMP2, MP2 Hessian
   Martin Krupicka        : AUTO-CI
   Lucas Lang             : DCDCAS
   Dagmar Lenk            : GEPOL surface, SMD
   Dimitrios Liakos       : Extrapolation schemes; Compound Job, initial MDCI parallelization
   Dimitrios Manganas     : Further ROCIS development; embedding schemes
   Dimitrios Pantazis     : SARC Basis sets
   Taras Petrenko         : DFT Hessian,TD-DFT gradient, ASA, ECA, R-Raman, ABS, FL, XAS/XES, NRVS
   Peter Pinski           : DLPNO-MP2, DLPNO-MP2 Gradient
   Christoph Reimann      : Effective Core Potentials
   Marius Retegan         : Local ZFS, SOC
   Christoph Riplinger    : Optimizer, TS searches, QM/MM, DLPNO-CCSD(T), (RO)-DLPNO pert. Triples
   Tobias Risthaus        : Range-separated hybrids, TD-DFT gradient, RPA, STAB
   Michael Roemelt        : Original ROCIS implementation
   Masaaki Saitow         : Open-shell DLPNO-CCSD energy and density
   Barbara Sandhoefer     : DKH picture change effects
   Avijit Sen             : IP-ROCIS
   Kantharuban Sivalingam : CASSCF convergence, NEVPT2, FIC-MRCI
   Bernardo de Souza      : ESD, SOC TD-DFT
   Georgi Stoychev        : AutoAux, RI-MP2 NMR
   Willem Van den Heuvel  : Paramagnetic NMR
   Boris Wezisla          : Elementary symmetry handling
   Frank Wennmohs         : Technical directorship


 We gratefully acknowledge several colleagues who have allowed us to
 interface, adapt or use parts of their codes:
   Stefan Grimme, W. Hujo, H. Kruse,             : VdW corrections, initial TS optimization,
                  C. Bannwarth                     DFT functionals, gCP, sTDA/sTD-DF
   Ed Valeev, F. Pavosevic, A. Kumar             : LibInt (2-el integral package), F12 methods
   Garnet Chan, S. Sharma, J. Yang, R. Olivares  : DMRG
   Ulf Ekstrom                                   : XCFun DFT Library
   Mihaly Kallay                                 : mrcc  (arbitrary order and MRCC methods)
   Andreas Klamt, Michael Diedenhofen            : otool_cosmo (COSMO solvation model)
   Jiri Pittner, Ondrej Demel                    : Mk-CCSD
   Frank Weinhold                                : gennbo (NPA and NBO analysis)
   Christopher J. Cramer and Donald G. Truhlar   : smd solvation model
   Lars Goerigk                                  : TD-DFT with DH, B97 family of functionals
   V. Asgeirsson, H. Jonsson                     : NEB implementation
   FAccTs GmbH                                   : IRC, NEB, NEB-TS, Multilevel, MM, QM/MM, CI optimization
   S Lehtola, MJT Oliveira, MAL Marques          : LibXC Library


 Your calculation uses the libint2 library for the computation of 2-el integrals
 For citations please refer to: http://libint.valeyev.net

 Your ORCA version has been built with support for libXC version: 4.2.3
 For citations please refer to: https://tddft.org/programs/libxc/

 This ORCA versions uses:
   CBLAS   interface :  Fast vector & matrix operations
   LAPACKE interface :  Fast linear algebra routines
   SCALAPACK package :  Parallel linear algebra routines


Your calculation utilizes the atom-pairwise dispersion correction
with the Becke-Johnson damping scheme (D3BJ)
Cite in your paper:
S.Grimme, S.Ehrlich, L.Goerigk, J Comput Chem, (2011), 32, 1456–1465 
S.Grimme, J.Antony, S.Ehrlich and H.Krieg, J.Chem.Phys., 132, (2010), 154104 
   

----- Orbital basis set information -----
Your calculation utilizes the basis: def2-SVP
   F. Weigend and R. Ahlrichs, Phys. Chem. Chem. Phys. 7, 3297 (2005).

----- AuxJ basis set information -----
Your calculation utilizes the auxiliary basis: def2/J
   F. Weigend, Phys. Chem. Chem. Phys. 8, 1057 (2006).

================================================================================
                                        WARNINGS
                       Please study these warnings very carefully!
================================================================================


INFO   : the flag for use of LIBINT has been found!

================================================================================
                                       INPUT FILE
================================================================================
NAME = manual_reactants_336_freq.inp
|  1> ! Freq PBE0 RIJCOSX D3BJ def2-SVP def2/J CPCM(Acetone)
|  2> %geom MaxIter 100 end
|  3> %output 
|  4> xyzfile=True 
|  5> end 
|  6> %scf 
|  7> maxiter 250 
|  8> end
|  9> %output
| 10> Print[P_Hirshfeld] = 1
| 11> end
| 12> % maxcore
| 13> 4000
| 14> %pal nprocs 4
| 15> end
| 16> *xyz -1 1
| 17>   C   -2.75363457998359      0.29891389448776      0.68756920871954
| 18>   C   -1.75432579734293      0.19337747110284     -0.45601846113805
| 19>   C   -0.37546746179491      0.61887096363067     -0.00622999821366
| 20>   Br  0.95369677298775      0.30792368156749     -1.41782210437070
| 21>   H   -3.73364089105380     -0.09825978258097      0.38067143964849
| 22>   H   -2.38395290098653     -0.26869413594546      1.55658189769508
| 23>   H   -2.89654113191209      1.34448427381389      1.00494577798537
| 24>   H   -1.70553778076171     -0.85062150148346     -0.80707925103905
| 25>   H   -2.07576318783343      0.79985291843412     -1.31900330162960
| 26>   H   -0.03910414355461      0.04147099049151      0.87146246613800
| 27>   H   -0.31515433857997      1.69370016071346      0.21433951668242
| 28>   Cl  -0.16115455918415     -1.16584893423184      3.00515280952215
| 29> *
| 30> 
| 31>                          ****END OF INPUT****
================================================================================

                       ****************************
                       * Single Point Calculation *
                       ****************************

---------------------------------
CARTESIAN COORDINATES (ANGSTROEM)
---------------------------------
  C     -2.753635    0.298914    0.687569
  C     -1.754326    0.193377   -0.456018
  C     -0.375467    0.618871   -0.006230
  Br     0.953697    0.307924   -1.417822
  H     -3.733641   -0.098260    0.380671
  H     -2.383953   -0.268694    1.556582
  H     -2.896541    1.344484    1.004946
  H     -1.705538   -0.850622   -0.807079
  H     -2.075763    0.799853   -1.319003
  H     -0.039104    0.041471    0.871462
  H     -0.315154    1.693700    0.214340
  Cl    -0.161155   -1.165849    3.005153

----------------------------
CARTESIAN COORDINATES (A.U.)
----------------------------
  NO LB      ZA    FRAG     MASS         X           Y           Z
   0 C     6.0000    0    12.011   -5.203615    0.564865    1.299318
   1 C     6.0000    0    12.011   -3.315195    0.365430   -0.861750
   2 C     6.0000    0    12.011   -0.709531    1.169497   -0.011773
   3 Br   35.0000    0    79.900    1.802226    0.581891   -2.679295
   4 H     1.0000    0     1.008   -7.055559   -0.185684    0.719365
   5 H     1.0000    0     1.008   -4.505018   -0.507758    2.941513
   6 H     1.0000    0     1.008   -5.473669    2.540707    1.899072
   7 H     1.0000    0     1.008   -3.222999   -1.607442   -1.525159
   8 H     1.0000    0     1.008   -3.922624    1.511503   -2.492555
   9 H     1.0000    0     1.008   -0.073896    0.078369    1.646825
  10 H     1.0000    0     1.008   -0.595555    3.200629    0.405043
  11 Cl   17.0000    0    35.453   -0.304538   -2.203135    5.678916

--------------------------------
INTERNAL COORDINATES (ANGSTROEM)
--------------------------------
 C      0   0   0     0.000000000000     0.00000000     0.00000000
 C      1   0   0     1.522349742462     0.00000000     0.00000000
 C      2   1   0     1.511490880910   110.84049826     0.00000000
 Br     3   2   1     1.963659351673   111.03826159   174.05640834
 H      1   2   3     1.101065638441   110.47912968   185.15516378
 H      1   2   3     1.101828695215   109.66480027   305.85439899
 H      1   2   3     1.101983478745   111.54616488    65.16100279
 H      2   1   3     1.102523380037   109.50481031   119.94468200
 H      2   1   3     1.102668263413   111.00384523   237.28716360
 H      3   2   1     1.103120606651   111.56668289    55.52162020
 H      3   2   1     1.098884155239   112.65266067   291.74888149
 Cl    10   3   2     2.454618541859   159.05224676   323.83880838

---------------------------
INTERNAL COORDINATES (A.U.)
---------------------------
 C      0   0   0     0.000000000000     0.00000000     0.00000000
 C      1   0   0     2.876824093299     0.00000000     0.00000000
 C      2   1   0     2.856303818839   110.84049826     0.00000000
 Br     3   2   1     3.710778394975   111.03826159   174.05640834
 H      1   2   3     2.080712512124   110.47912968   185.15516378
 H      1   2   3     2.082154480452   109.66480027   305.85439899
 H      1   2   3     2.082446978934   111.54616488    65.16100279
 H      2   1   3     2.083467244516   109.50481031   119.94468200
 H      2   1   3     2.083741034418   111.00384523   237.28716360
 H      3   2   1     2.084595839256   111.56668289    55.52162020
 H      3   2   1     2.076590106307   112.65266067   291.74888149
 Cl    10   3   2     4.638556807359   159.05224676   323.83880838

---------------------
BASIS SET INFORMATION
---------------------
There are 4 groups of distinct atoms

 Group   1 Type C   : 7s4p1d contracted to 3s2p1d pattern {511/31/1}
 Group   2 Type Br  : 14s10p6d contracted to 5s4p3d pattern {63311/5311/411}
 Group   3 Type H   : 4s1p contracted to 2s1p pattern {31/1}
 Group   4 Type Cl  : 10s7p1d contracted to 4s3p1d pattern {5311/511/1}

Atom   0C    basis set group =>   1
Atom   1C    basis set group =>   1
Atom   2C    basis set group =>   1
Atom   3Br   basis set group =>   2
Atom   4H    basis set group =>   3
Atom   5H    basis set group =>   3
Atom   6H    basis set group =>   3
Atom   7H    basis set group =>   3
Atom   8H    basis set group =>   3
Atom   9H    basis set group =>   3
Atom  10H    basis set group =>   3
Atom  11Cl   basis set group =>   4
---------------------------------
AUXILIARY/J BASIS SET INFORMATION
---------------------------------
There are 4 groups of distinct atoms

 Group   1 Type C   : 12s5p4d2f1g contracted to 6s4p3d1f1g pattern {711111/2111/211/2/1}
 Group   2 Type Br  : 19s5p5d3f1g contracted to 8s4p3d2f1g pattern {121111111/2111/311/21/1}
 Group   3 Type H   : 5s2p1d contracted to 3s1p1d pattern {311/2/1}
 Group   4 Type Cl  : 14s5p5d2f1g contracted to 8s4p3d1f1g pattern {71111111/2111/311/2/1}

Atom   0C    basis set group =>   1
Atom   1C    basis set group =>   1
Atom   2C    basis set group =>   1
Atom   3Br   basis set group =>   2
Atom   4H    basis set group =>   3
Atom   5H    basis set group =>   3
Atom   6H    basis set group =>   3
Atom   7H    basis set group =>   3
Atom   8H    basis set group =>   3
Atom   9H    basis set group =>   3
Atom  10H    basis set group =>   3
Atom  11Cl   basis set group =>   4
[1631715837.367501] [comp0810:221186:0]            sys.c:618  UCX  ERROR shmget(size=2097152 flags=0xfb0) for mm_recv_desc failed: Operation not permitted, please check shared memory limits by 'ipcs -l'
[1631715837.368136] [comp0810:221187:0]            sys.c:618  UCX  ERROR shmget(size=2097152 flags=0xfb0) for mm_recv_desc failed: Operation not permitted, please check shared memory limits by 'ipcs -l'
[1631715837.367645] [comp0810:221188:0]            sys.c:618  UCX  ERROR shmget(size=2097152 flags=0xfb0) for mm_recv_desc failed: Operation not permitted, please check shared memory limits by 'ipcs -l'
[1631715837.367999] [comp0810:221189:0]            sys.c:618  UCX  ERROR shmget(size=2097152 flags=0xfb0) for mm_recv_desc failed: Operation not permitted, please check shared memory limits by 'ipcs -l'
[1631715837.381678] [comp0810:221188:0]            sys.c:618  UCX  ERROR shmget(size=2097152 flags=0xb80) for ucp_am_bufs failed: Operation not permitted, please check shared memory limits by 'ipcs -l'
[1631715837.381677] [comp0810:221189:0]            sys.c:618  UCX  ERROR shmget(size=2097152 flags=0xb80) for ucp_am_bufs failed: Operation not permitted, please check shared memory limits by 'ipcs -l'
[1631715837.397320] [comp0810:221186:0]            sys.c:618  UCX  ERROR shmget(size=2097152 flags=0xb80) for ucp_am_bufs failed: Operation not permitted, please check shared memory limits by 'ipcs -l'
[1631715837.397734] [comp0810:221187:0]            sys.c:618  UCX  ERROR shmget(size=2097152 flags=0xb80) for ucp_am_bufs failed: Operation not permitted, please check shared memory limits by 'ipcs -l'


           ************************************************************
           *        Program running with 4 parallel MPI-processes     *
           *              working on a common directory               *
           ************************************************************
------------------------------------------------------------------------------
                           ORCA GTO INTEGRAL CALCULATION
                           -- RI-GTO INTEGRALS CHOSEN --
------------------------------------------------------------------------------

                         BASIS SET STATISTICS AND STARTUP INFO

Gaussian basis set:
 # of primitive gaussian shells          ...  119
 # of primitive gaussian functions       ...  231
 # of contracted shells                  ...   59
 # of contracted basis functions         ...  127
 Highest angular momentum                ...    2
 Maximum contraction depth               ...    6
Auxiliary gaussian basis set:
 # of primitive gaussian shells          ...  188
 # of primitive gaussian functions       ...  488
 # of contracted shells                  ...  115
 # of contracted aux-basis functions     ...  333
 Highest angular momentum                ...    4
 Maximum contraction depth               ...   12
Ratio of auxiliary to basis functions    ...  2.62
Integral package used                  ... LIBINT
 One Electron integrals                  ... done
 Ordering auxiliary basis shells         ... done
 Integral threshhold             Thresh  ...  1.000e-10
 Primitive cut-off               TCut    ...  1.000e-11
 Pre-screening matrix                    ... done
 Shell pair data                         ... 
 Ordering of the shell pairs             ... done (   0.000 sec) 1614 of 1770 pairs
 Determination of significant pairs      ... done (   0.000 sec)
 Creation of shell pair data             ... done (   0.000 sec)
 Storage of shell pair data              ... done (   0.001 sec)
 Shell pair data done in (   0.001 sec)
 Computing two index integrals           ... done
 Cholesky decomposition of the V-matrix  ... done


Timings:
 Total evaluation time                   ...   0.329 sec (  0.005 min)
 One electron matrix time                ...   0.010 sec (  0.000 min) =  2.9%
 Schwartz matrix evaluation time         ...   0.113 sec (  0.002 min) = 34.4%
 Two index repulsion integral time       ...   0.003 sec (  0.000 min) =  0.8%
 Cholesky decomposition of V             ...   0.186 sec (  0.003 min) = 56.5%
 Three index repulsion integral time     ...   0.000 sec (  0.000 min) =  0.0%

[1631715839.612564] [comp0810:221214:0]            sys.c:618  UCX  ERROR shmget(size=2097152 flags=0xfb0) for mm_recv_desc failed: Operation not permitted, please check shared memory limits by 'ipcs -l'
[1631715839.618259] [comp0810:221212:0]            sys.c:618  UCX  ERROR shmget(size=2097152 flags=0xfb0) for mm_recv_desc failed: Operation not permitted, please check shared memory limits by 'ipcs -l'
[1631715839.619105] [comp0810:221213:0]            sys.c:618  UCX  ERROR shmget(size=2097152 flags=0xfb0) for mm_recv_desc failed: Operation not permitted, please check shared memory limits by 'ipcs -l'
[1631715839.618613] [comp0810:221215:0]            sys.c:618  UCX  ERROR shmget(size=2097152 flags=0xfb0) for mm_recv_desc failed: Operation not permitted, please check shared memory limits by 'ipcs -l'
[1631715839.629808] [comp0810:221214:0]            sys.c:618  UCX  ERROR shmget(size=2097152 flags=0xb80) for ucp_am_bufs failed: Operation not permitted, please check shared memory limits by 'ipcs -l'
[1631715839.629813] [comp0810:221215:0]            sys.c:618  UCX  ERROR shmget(size=2097152 flags=0xb80) for ucp_am_bufs failed: Operation not permitted, please check shared memory limits by 'ipcs -l'


           ************************************************************
           *        Program running with 4 parallel MPI-processes     *
           *              working on a common directory               *
           ************************************************************
-------------------------------------------------------------------------------
                                 ORCA SCF
-------------------------------------------------------------------------------

[1631715839.630258] [comp0810:221213:0]            sys.c:618  UCX  ERROR shmget(size=2097152 flags=0xb80) for ucp_am_bufs failed: Operation not permitted, please check shared memory limits by 'ipcs -l'
[1631715839.632298] [comp0810:221212:0]            sys.c:618  UCX  ERROR shmget(size=2097152 flags=0xb80) for ucp_am_bufs failed: Operation not permitted, please check shared memory limits by 'ipcs -l'
------------
SCF SETTINGS
------------
Hamiltonian:
 Density Functional     Method          .... DFT(GTOs)
 Exchange Functional    Exchange        .... PBE
   PBE kappa parameter   XKappa         ....  0.804000
   PBE mue parameter    XMuePBE         ....  0.219520
 Correlation Functional Correlation     .... PBE
   PBE beta parameter  CBetaPBE         ....  0.066725
 LDA part of GGA corr.  LDAOpt          .... PW91-LDA
 Gradients option       PostSCFGGA      .... off
 Hybrid DFT is turned on
   Fraction HF Exchange ScalHFX         ....  0.250000
   Scaling of DF-GGA-X  ScalDFX         ....  0.750000
   Scaling of DF-GGA-C  ScalDFC         ....  1.000000
   Scaling of DF-LDA-C  ScalLDAC        ....  1.000000
   Perturbative correction              ....  0.000000
   Density functional embedding theory  .... OFF
   NL short-range parameter             ....  6.900000
 RI-approximation to the Coulomb term is turned on
   Number of auxiliary basis functions  .... 333
   RIJ-COSX (HFX calculated with COS-X)).... on


General Settings:
 Integral files         IntName         .... manual_reactants_336_freq
 Hartree-Fock type      HFTyp           .... RHF
 Total Charge           Charge          ....   -1
 Multiplicity           Mult            ....    1
 Number of Electrons    NEL             ....   78
 Basis Dimension        Dim             ....  127
 Nuclear Repulsion      ENuc            ....    362.1147994213 Eh

Convergence Acceleration:
 DIIS                   CNVDIIS         .... on
   Start iteration      DIISMaxIt       ....    12
   Startup error        DIISStart       ....  0.200000
   # of expansion vecs  DIISMaxEq       ....     5
   Bias factor          DIISBfac        ....   1.050
   Max. coefficient     DIISMaxC        ....  10.000
 Newton-Raphson         CNVNR           .... off
 SOSCF                  CNVSOSCF        .... on
   Start iteration      SOSCFMaxIt      ....   150
   Startup grad/error   SOSCFStart      ....  0.003300
 Level Shifting         CNVShift        .... on
   Level shift para.    LevelShift      ....    0.2500
   Turn off err/grad.   ShiftErr        ....    0.0010
 Zerner damping         CNVZerner       .... off
 Static damping         CNVDamp         .... on
   Fraction old density DampFac         ....    0.7000
   Max. Damping (<1)    DampMax         ....    0.9800
   Min. Damping (>=0)   DampMin         ....    0.0000
   Turn off err/grad.   DampErr         ....    0.1000
 Fernandez-Rico         CNVRico         .... off

SCF Procedure:
 Maximum # iterations   MaxIter         ....   250
 SCF integral mode      SCFMode         .... Direct
   Integral package                     .... LIBINT
 Reset frequency        DirectResetFreq ....    20
 Integral Threshold     Thresh          ....  1.000e-10 Eh
 Primitive CutOff       TCut            ....  1.000e-11 Eh

Convergence Tolerance:
 Convergence Check Mode ConvCheckMode   .... Total+1el-Energy
 Convergence forced     ConvForced      .... 0
 Energy Change          TolE            ....  1.000e-06 Eh
 1-El. energy change                    ....  1.000e-03 Eh
 Orbital Gradient       TolG            ....  5.000e-05
 Orbital Rotation angle TolX            ....  5.000e-05
 DIIS Error             TolErr          ....  1.000e-06


Diagonalization of the overlap matrix:
Smallest eigenvalue                        ... 2.324e-03
Time for diagonalization                   ...    0.164 sec
Threshold for overlap eigenvalues          ... 1.000e-08
Number of eigenvalues below threshold      ... 0
Time for construction of square roots      ...    0.001 sec
Total time needed                          ...    0.165 sec

-------------------
DFT GRID GENERATION
-------------------

General Integration Accuracy     IntAcc      ...  4.340
Radial Grid Type                 RadialGrid  ... Gauss-Chebyshev
Angular Grid (max. acc.)         AngularGrid ... Lebedev-110
Angular grid pruning method      GridPruning ... 3 (G Style)
Weight generation scheme         WeightScheme... Becke
Basis function cutoff            BFCut       ...    1.0000e-10
Integration weight cutoff        WCut        ...    1.0000e-14
Grids for H and He will be reduced by one unit

# of grid points (after initial pruning)     ...  15260 (   0.0 sec)
# of grid points (after weights+screening)   ...  14493 (   0.0 sec)
nearest neighbour list constructed           ...    0.0 sec
Grid point re-assignment to atoms done       ...    0.0 sec
Grid point division into batches done        ...    0.0 sec
Reduced shell lists constructed in    0.0 sec

Total number of grid points                  ...    14493
Total number of batches                      ...      232
Average number of points per batch           ...       62
Average number of grid points per atom       ...     1208
Average number of shells per batch           ...    42.97 (72.82%)
Average number of basis functions per batch  ...    90.66 (71.39%)
Average number of large shells per batch     ...    35.85 (83.43%)
Average number of large basis fcns per batch ...    73.85 (81.45%)
Maximum spatial batch extension              ...  18.89, 20.19, 18.24 au
Average spatial batch extension              ...   0.69,  0.71,  0.74 au

Time for grid setup =    0.042 sec

------------------------------
INITIAL GUESS: MODEL POTENTIAL
------------------------------
Loading Hartree-Fock densities                     ... done
Calculating cut-offs                               ... done
Setting up the integral package                    ... done
Initializing the effective Hamiltonian             ... done
Starting the Coulomb interaction                   ... done (   0.0 sec)
Reading the grid                                   ... done
Mapping shells                                     ... done
Starting the XC term evaluation                    ... done (   0.0 sec)
  promolecular density results
     # of electrons  =     76.992902145
     EX              =   -134.008780568
     EC              =     -3.171154446
     EX+EC           =   -137.179935014
Transforming the Hamiltonian                       ... done (   0.0 sec)
Diagonalizing the Hamiltonian                      ... done (   0.0 sec)
Back transforming the eigenvectors                 ... done (   0.0 sec)
Now organizing SCF variables                       ... done
                      ------------------
                      INITIAL GUESS DONE (   0.2 sec)
                      ------------------
--------------------
COSX GRID GENERATION
--------------------

General Integration Accuracy     IntAcc      ...  3.340
Radial Grid Type                 RadialGrid  ... Gauss-Chebyshev
Angular Grid (max. acc.)         AngularGrid ... Lebedev-50
Angular grid pruning method      GridPruning ... 3 (G Style)
Weight generation scheme         WeightScheme... Becke
Basis function cutoff            BFCut       ...    1.0000e-10
Integration weight cutoff        WCut        ...    1.0000e-14
Grids for H and He will be reduced by one unit

# of grid points (after initial pruning)     ...   5728 (   0.0 sec)
# of grid points (after weights+screening)   ...   5439 (   0.0 sec)
nearest neighbour list constructed           ...    0.0 sec
Grid point re-assignment to atoms done       ...    0.0 sec
Grid point division into batches done        ...    0.0 sec
Reduced shell lists constructed in    0.0 sec

Total number of grid points                  ...     5439
Total number of batches                      ...       92
Average number of points per batch           ...       59
Average number of grid points per atom       ...      453
Average number of shells per batch           ...    44.08 (74.72%)
Average number of basis functions per batch  ...    93.58 (73.69%)
Average number of large shells per batch     ...    37.83 (85.82%)
Average number of large basis fcns per batch ...    78.33 (83.70%)
Maximum spatial batch extension              ...  14.65, 17.24, 15.71 au
Average spatial batch extension              ...   0.99,  0.89,  0.98 au

Overlap Fitting                  UseSFitting ... on
Constructing numerical overlap ... done (      0.0 sec)
Inverting numerical overlap    ... done (      0.0 sec)
Obtaining analytic overlap     ... done (      0.0 sec)
Final contraction and storage  ... done (      0.0 sec)


General Integration Accuracy     IntAcc      ...  3.670
Radial Grid Type                 RadialGrid  ... Gauss-Chebyshev
Angular Grid (max. acc.)         AngularGrid ... Lebedev-50
Angular grid pruning method      GridPruning ... 3 (G Style)
Weight generation scheme         WeightScheme... Becke
Basis function cutoff            BFCut       ...    1.0000e-10
Integration weight cutoff        WCut        ...    1.0000e-14
Grids for H and He will be reduced by one unit

# of grid points (after initial pruning)     ...   7222 (   0.0 sec)
# of grid points (after weights+screening)   ...   6837 (   0.0 sec)
nearest neighbour list constructed           ...    0.0 sec
Grid point re-assignment to atoms done       ...    0.0 sec
Grid point division into batches done        ...    0.0 sec
Reduced shell lists constructed in    0.0 sec

Total number of grid points                  ...     6837
Total number of batches                      ...      113
Average number of points per batch           ...       60
Average number of grid points per atom       ...      570
Average number of shells per batch           ...    44.13 (74.80%)
Average number of basis functions per batch  ...    93.40 (73.54%)
Average number of large shells per batch     ...    37.50 (84.97%)
Average number of large basis fcns per batch ...    77.30 (82.76%)
Maximum spatial batch extension              ...  15.22, 21.20, 16.53 au
Average spatial batch extension              ...   0.86,  0.86,  0.90 au

Overlap Fitting                  UseSFitting ... on
Constructing numerical overlap ... done (      0.0 sec)
Inverting numerical overlap    ... done (      0.0 sec)
Obtaining analytic overlap     ... done (      0.0 sec)
Final contraction and storage  ... done (      0.0 sec)


General Integration Accuracy     IntAcc      ...  4.010
Radial Grid Type                 RadialGrid  ... Gauss-Chebyshev
Angular Grid (max. acc.)         AngularGrid ... Lebedev-110
Angular grid pruning method      GridPruning ... 3 (G Style)
Weight generation scheme         WeightScheme... Becke
Basis function cutoff            BFCut       ...    1.0000e-10
Integration weight cutoff        WCut        ...    1.0000e-14
Grids for H and He will be reduced by one unit

# of grid points (after initial pruning)     ...  13318 (   0.0 sec)
# of grid points (after weights+screening)   ...  12675 (   0.0 sec)
nearest neighbour list constructed           ...    0.0 sec
Grid point re-assignment to atoms done       ...    0.0 sec
Grid point division into batches done        ...    0.0 sec
Reduced shell lists constructed in    0.0 sec

Total number of grid points                  ...    12675
Total number of batches                      ...      203
Average number of points per batch           ...       62
Average number of grid points per atom       ...     1056
Average number of shells per batch           ...    43.10 (73.04%)
Average number of basis functions per batch  ...    91.37 (71.94%)
Average number of large shells per batch     ...    35.94 (83.40%)
Average number of large basis fcns per batch ...    74.56 (81.60%)
Maximum spatial batch extension              ...  17.87, 17.23, 17.17 au
Average spatial batch extension              ...   0.77,  0.74,  0.77 au

Overlap Fitting                  UseSFitting ... on
Constructing numerical overlap ... done (      0.0 sec)
Inverting numerical overlap    ... done (      0.0 sec)
Obtaining analytic overlap     ... done (      0.0 sec)
Final contraction and storage  ... done (      0.0 sec)

Time for X-Grid setup             =    0.148 sec

--------------------
CPCM SOLVATION MODEL
--------------------
CPCM parameters:
  Epsilon                                         ...      20.7000
  Refrac                                          ...       1.3590
  Rsolv                                           ...       1.3000
  Surface type                                    ...    GEPOL SES
  Epsilon function type                           ...         CPCM
Radii:
 Radius for C  used is    3.7795 Bohr (=   2.0000 Ang.)
 Radius for Br used is    4.0818 Bohr (=   2.1600 Ang.)
 Radius for H  used is    2.4566 Bohr (=   1.3000 Ang.)
 Radius for Cl used is    3.8739 Bohr (=   2.0500 Ang.)
Calculating surface                               ...        done! (  0.0s)
GEPOL surface points                              ...          518
GEPOL Volume                                      ...     972.8911
GEPOL Surface-area                                ...     572.4483
Calculating surface distance matrix               ...        done! (  0.0s)
Performing Cholesky decomposition & store         ...        done! (  0.0s)
Overall time for CPCM initialization              ...                 0.0s
--------------
SCF ITERATIONS
--------------
ITER       Energy         Delta-E        Max-DP      RMS-DP      [F,P]     Damp
               ***  Starting incremental Fock matrix formation  ***
  0  -3151.7654361667   0.000000000000 0.10670786  0.00259980  0.1634617 0.7000
  1  -3151.8309580430  -0.065521876264 0.07464557  0.00197213  0.0906177 0.7000
                               ***Turning on DIIS***
  2  -3151.8604289604  -0.029470917400 0.13420104  0.00381192  0.0485748 0.0000
  3  -3151.9032747067  -0.042845746378 0.04053562  0.00114702  0.0458479 0.0000
  4  -3151.9135703657  -0.010295658925 0.01999938  0.00040452  0.0109099 0.0000
                      *** Initiating the SOSCF procedure ***
                           *** Shutting down DIIS ***
                      *** Re-Reading the Fockian *** 
                      *** Removing any level shift *** 
ITER      Energy       Delta-E        Grad      Rot      Max-DP    RMS-DP
  5  -3151.91404320  -0.0004728367  0.000624  0.000624  0.001899  0.000089
               *** Restarting incremental Fock matrix formation ***
  6  -3151.91406142  -0.0000182145  0.000286  0.000545  0.001554  0.000064
  7  -3151.91406241  -0.0000009884  0.000253  0.000159  0.000780  0.000016
  8  -3151.91406413  -0.0000017288  0.000054  0.000047  0.000246  0.000005
  9  -3151.91406410   0.0000000363  0.000044  0.000021  0.000108  0.000002
                 **** Energy Check signals convergence ****
              ***Rediagonalizing the Fockian in SOSCF/NRSCF***

               *****************************************************
               *                     SUCCESS                       *
               *           SCF CONVERGED AFTER  10 CYCLES          *
               *****************************************************

Setting up the final grid:

General Integration Accuracy     IntAcc      ...  4.670
Radial Grid Type                 RadialGrid  ... Gauss-Chebyshev
Angular Grid (max. acc.)         AngularGrid ... Lebedev-302
Angular grid pruning method      GridPruning ... 3 (G Style)
Weight generation scheme         WeightScheme... Becke
Basis function cutoff            BFCut       ...    1.0000e-10
Integration weight cutoff        WCut        ...    1.0000e-14
Grids for H and He will be reduced by one unit

# of grid points (after initial pruning)     ...  58748 (   0.0 sec)
# of grid points (after weights+screening)   ...  55071 (   0.0 sec)
nearest neighbour list constructed           ...    0.0 sec
Grid point re-assignment to atoms done       ...    0.0 sec
Grid point division into batches done        ...    0.2 sec
Reduced shell lists constructed in    0.3 sec

Total number of grid points                  ...    55071
Total number of batches                      ...      865
Average number of points per batch           ...       63
Average number of grid points per atom       ...     4589
Average number of shells per batch           ...    40.37 (68.43%)
Average number of basis functions per batch  ...    84.74 (66.72%)
Average number of large shells per batch     ...    33.48 (82.92%)
Average number of large basis fcns per batch ...    68.92 (81.33%)
Maximum spatial batch extension              ...  15.86, 17.07, 14.39 au
Average spatial batch extension              ...   0.52,  0.54,  0.51 au

Final grid set up in    0.3 sec
Final integration                            ... done (   0.1 sec)
Change in XC energy                          ...    -0.000586449
Integrated number of electrons               ...    78.000082353
Previous integrated no of electrons          ...    77.995871609
Old exchange energy                            =    -33.857477238 Eh
New exchange energy                            =    -33.857076495 Eh
Exchange energy change after final integration =      0.000400743 Eh
Total energy after final integration           =  -3151.914249907 Eh
Final COS-X integration done in                =     0.592 sec

----------------
TOTAL SCF ENERGY
----------------

Total Energy       :        -3151.91424991 Eh          -85767.94710 eV

Components:
Nuclear Repulsion  :          362.11479942 Eh            9853.64464 eV
Electronic Energy  :        -3514.02904933 Eh          -95621.59174 eV
One Electron Energy:        -5111.93848437 Eh         -139102.91802 eV
Two Electron Energy:         1597.90943505 Eh           43481.32628 eV
CPCM Dielectric    :           -0.10263992 Eh              -2.79297 eV

Virial components:
Potential Energy   :        -6299.10148510 Eh         -171407.26559 eV
Kinetic Energy     :         3147.18723519 Eh           85639.31849 eV
Virial Ratio       :            2.00150198


DFT components:
N(Alpha)           :       39.000041176596 electrons
N(Beta)            :       39.000041176596 electrons
N(Total)           :       78.000082353192 electrons
E(X)               :     -101.082972577139 Eh       
E(C)               :       -3.223907794978 Eh       
E(XC)              :     -104.306880372117 Eh       
DFET-embed. en.    :        0.000000000000 Eh       
CPCM Solvation Model Properties:
Surface-charge          :            0.97936238
Charge-correction       :           -0.00294276 Eh              -0.08008 eV
Free-energy (cav+disp)  :            0.00383304 Eh               0.10430 eV
Corrected G(solv)       :        -3151.91335962 Eh          -85767.92287 eV

---------------
SCF CONVERGENCE
---------------

  Last Energy change         ...   -1.0367e-07  Tolerance :   1.0000e-06
  Last MAX-Density change    ...    4.4409e-15  Tolerance :   1.0000e-05
  Last RMS-Density change    ...    1.0223e-16  Tolerance :   1.0000e-06
  Last Orbital Gradient      ...    1.0405e-06  Tolerance :   5.0000e-05
  Last Orbital Rotation      ...    1.8237e-06  Tolerance :   5.0000e-05

             **** THE GBW FILE WAS UPDATED (manual_reactants_336_freq.gbw) ****
             **** DENSITY FILE WAS UPDATED (manual_reactants_336_freq.scfp) ****
             **** ENERGY FILE WAS UPDATED (manual_reactants_336_freq.en.tmp) ****
             **** THE GBW FILE WAS UPDATED (manual_reactants_336_freq.gbw) ****
             **** DENSITY FILE WAS UPDATED (manual_reactants_336_freq.scfp) ****
----------------
ORBITAL ENERGIES
----------------

  NO   OCC          E(Eh)            E(eV) 
   0   2.0000    -483.168316    -13147.6783 
   1   2.0000    -101.520738     -2762.5197 
   2   2.0000     -62.604715     -1703.5609 
   3   2.0000     -56.393836     -1534.5543 
   4   2.0000     -56.391670     -1534.4954 
   5   2.0000     -56.391555     -1534.4922 
   6   2.0000     -10.261533      -279.2305 
   7   2.0000     -10.224994      -278.2362 
   8   2.0000     -10.210021      -277.8288 
   9   2.0000      -9.367917      -254.9140 
  10   2.0000      -8.750038      -238.1006 
  11   2.0000      -7.103813      -193.3046 
  12   2.0000      -7.103605      -193.2989 
  13   2.0000      -7.103356      -193.2921 
  14   2.0000      -6.564072      -178.6175 
  15   2.0000      -6.552361      -178.2988 
  16   2.0000      -6.552243      -178.2956 
  17   2.0000      -2.649742       -72.1031 
  18   2.0000      -2.646364       -72.0112 
  19   2.0000      -2.646305       -72.0096 
  20   2.0000      -2.636856       -71.7525 
  21   2.0000      -2.636846       -71.7522 
  22   2.0000      -0.826334       -22.4857 
  23   2.0000      -0.761536       -20.7225 
  24   2.0000      -0.670716       -18.2511 
  25   2.0000      -0.658913       -17.9299 
  26   2.0000      -0.585380       -15.9290 
  27   2.0000      -0.474952       -12.9241 
  28   2.0000      -0.434609       -11.8263 
  29   2.0000      -0.412553       -11.2261 
  30   2.0000      -0.396552       -10.7907 
  31   2.0000      -0.351995        -9.5783 
  32   2.0000      -0.343305        -9.3418 
  33   2.0000      -0.332748        -9.0545 
  34   2.0000      -0.279615        -7.6087 
  35   2.0000      -0.278837        -7.5875 
  36   2.0000      -0.213011        -5.7963 
  37   2.0000      -0.212116        -5.7720 
  38   2.0000      -0.208744        -5.6802 
  39   0.0000       0.026902         0.7320 
  40   0.0000       0.099639         2.7113 
  41   0.0000       0.123708         3.3663 
  42   0.0000       0.137283         3.7357 
  43   0.0000       0.152856         4.1594 
  44   0.0000       0.172994         4.7074 
  45   0.0000       0.192022         5.2252 
  46   0.0000       0.202675         5.5151 
  47   0.0000       0.228987         6.2310 
  48   0.0000       0.254780         6.9329 
  49   0.0000       0.362478         9.8635 
  50   0.0000       0.422743        11.5034 
  51   0.0000       0.427934        11.6447 
  52   0.0000       0.435468        11.8497 
  53   0.0000       0.451421        12.2838 
  54   0.0000       0.467836        12.7305 
  55   0.0000       0.534975        14.5574 
  56   0.0000       0.538290        14.6476 
  57   0.0000       0.580715        15.8021 
  58   0.0000       0.591351        16.0915 
  59   0.0000       0.601683        16.3726 
  60   0.0000       0.612339        16.6626 
  61   0.0000       0.636440        17.3184 
  62   0.0000       0.642669        17.4879 
  63   0.0000       0.659766        17.9531 
  64   0.0000       0.682855        18.5814 
  65   0.0000       0.706047        19.2125 
  66   0.0000       0.713050        19.4031 
  67   0.0000       0.715670        19.4744 
  68   0.0000       0.723942        19.6995 
  69   0.0000       0.730189        19.8695 
  70   0.0000       0.737812        20.0769 
  71   0.0000       0.784515        21.3478 
  72   0.0000       0.819738        22.3062 
  73   0.0000       0.839044        22.8316 
  74   0.0000       0.892996        24.2997 
  75   0.0000       0.923133        25.1197 
  76   0.0000       0.923590        25.1322 
  77   0.0000       0.924655        25.1611 
  78   0.0000       0.940751        25.5991 
  79   0.0000       0.953515        25.9465 
  80   0.0000       0.995428        27.0870 
  81   0.0000       1.016000        27.6468 
  82   0.0000       1.035985        28.1906 
  83   0.0000       1.078211        29.3396 
  84   0.0000       1.111008        30.2321 
  85   0.0000       1.190790        32.4030 
  86   0.0000       1.203009        32.7356 
  87   0.0000       1.260853        34.3096 
  88   0.0000       1.377206        37.4757 
  89   0.0000       1.388776        37.7905 
  90   0.0000       1.425994        38.8033 
  91   0.0000       1.560175        42.4545 
  92   0.0000       1.687943        45.9313 
  93   0.0000       1.751677        47.6656 
  94   0.0000       1.763971        48.0001 
  95   0.0000       1.795299        48.8526 
  96   0.0000       1.798439        48.9380 
  97   0.0000       1.814021        49.3620 
  98   0.0000       1.845255        50.2119 
  99   0.0000       1.858621        50.5756 
 100   0.0000       1.883988        51.2659 
 101   0.0000       1.907640        51.9095 
 102   0.0000       1.937362        52.7183 
 103   0.0000       1.977361        53.8067 
 104   0.0000       1.990492        54.1640 
 105   0.0000       2.102764        57.2191 
 106   0.0000       2.169131        59.0251 
 107   0.0000       2.241683        60.9993 
 108   0.0000       2.341013        63.7022 
 109   0.0000       2.400680        65.3258 
 110   0.0000       2.419056        65.8259 
 111   0.0000       2.454141        66.7806 
 112   0.0000       2.562517        69.7296 
 113   0.0000       2.597476        70.6809 
 114   0.0000       2.616251        71.1918 
 115   0.0000       2.783162        75.7337 
 116   0.0000       2.854946        77.6870 
 117   0.0000       2.912043        79.2407 
 118   0.0000       2.946098        80.1674 
 119   0.0000       3.027471        82.3817 
 120   0.0000       3.055974        83.1573 
 121   0.0000       3.093171        84.1695 
 122   0.0000       3.480846        94.7186 
 123   0.0000       3.500831        95.2625 
 124   0.0000       3.595395        97.8357 
 125   0.0000       3.606179        98.1291 
 126   0.0000       3.842492       104.5595 

                    ********************************
                    * MULLIKEN POPULATION ANALYSIS *
                    ********************************

-----------------------
MULLIKEN ATOMIC CHARGES
-----------------------
   0 C :   -0.089405
   1 C :   -0.080841
   2 C :   -0.117247
   3 Br:   -0.223704
   4 H :    0.044116
   5 H :    0.016067
   6 H :    0.039708
   7 H :    0.046611
   8 H :    0.048011
   9 H :    0.059713
  10 H :    0.094383
  11 Cl:   -0.837412
Sum of atomic charges:   -1.0000000

--------------------------------
MULLIKEN REDUCED ORBITAL CHARGES
--------------------------------
  0 C s       :     3.043196  s :     3.043196
      pz      :     1.002711  p :     3.018980
      px      :     0.984956
      py      :     1.031313
      dz2     :     0.005232  d :     0.027230
      dxz     :     0.006190
      dyz     :     0.005854
      dx2y2   :     0.006578
      dxy     :     0.003375
  1 C s       :     3.067077  s :     3.067077
      pz      :     1.026687  p :     2.976695
      px      :     0.922061
      py      :     1.027947
      dz2     :     0.006751  d :     0.037069
      dxz     :     0.008441
      dyz     :     0.007394
      dx2y2   :     0.009323
      dxy     :     0.005160
  2 C s       :     3.164179  s :     3.164179
      pz      :     0.940544  p :     2.917769
      px      :     0.894363
      py      :     1.082861
      dz2     :     0.005709  d :     0.035299
      dxz     :     0.009906
      dyz     :     0.005051
      dx2y2   :     0.009528
      dxy     :     0.005104
  3 Brs       :     7.968767  s :     7.968767
      pz      :     5.598911  p :    17.212530
      px      :     5.649486
      py      :     5.964133
      dz2     :     2.008898  d :    10.042408
      dxz     :     2.017082
      dyz     :     2.005933
      dx2y2   :     2.005955
      dxy     :     2.004540
  4 H s       :     0.932124  s :     0.932124
      pz      :     0.005213  p :     0.023760
      px      :     0.012226
      py      :     0.006321
  5 H s       :     0.958483  s :     0.958483
      pz      :     0.011146  p :     0.025450
      px      :     0.006468
      py      :     0.007836
  6 H s       :     0.936491  s :     0.936491
      pz      :     0.005342  p :     0.023801
      px      :     0.004899
      py      :     0.013559
  7 H s       :     0.930822  s :     0.930822
      pz      :     0.005252  p :     0.022567
      px      :     0.003751
      py      :     0.013564
  8 H s       :     0.929663  s :     0.929663
      pz      :     0.010188  p :     0.022326
      px      :     0.004370
      py      :     0.007769
  9 H s       :     0.914248  s :     0.914248
      pz      :     0.013712  p :     0.026039
      px      :     0.003878
      py      :     0.008449
 10 H s       :     0.882956  s :     0.882956
      pz      :     0.004241  p :     0.022661
      px      :     0.003397
      py      :     0.015022
 11 Cls       :     5.989099  s :     5.989099
      pz      :     3.923963  p :    11.847893
      px      :     3.948126
      py      :     3.975804
      dz2     :     0.000129  d :     0.000421
      dxz     :     0.000050
      dyz     :     0.000190
      dx2y2   :     0.000032
      dxy     :     0.000019


                     *******************************
                     * LOEWDIN POPULATION ANALYSIS *
                     *******************************

----------------------
LOEWDIN ATOMIC CHARGES
----------------------
   0 C :   -0.079578
   1 C :   -0.070472
   2 C :   -0.088808
   3 Br:   -0.053692
   4 H :    0.030239
   5 H :    0.008183
   6 H :    0.026816
   7 H :    0.028663
   8 H :    0.026342
   9 H :   -0.003137
  10 H :    0.033844
  11 Cl:   -0.858400

-------------------------------
LOEWDIN REDUCED ORBITAL CHARGES
-------------------------------
  0 C s       :     2.846318  s :     2.846318
      pz      :     1.052139  p :     3.163323
      px      :     1.037270
      py      :     1.073914
      dz2     :     0.012725  d :     0.069937
      dxz     :     0.017545
      dyz     :     0.014174
      dx2y2   :     0.017310
      dxy     :     0.008182
  1 C s       :     2.845866  s :     2.845866
      pz      :     1.050239  p :     3.133041
      px      :     1.016465
      py      :     1.066337
      dz2     :     0.015615  d :     0.091565
      dxz     :     0.021999
      dyz     :     0.017925
      dx2y2   :     0.024630
      dxy     :     0.011396
  2 C s       :     2.920600  s :     2.920600
      pz      :     0.994372  p :     3.085795
      px      :     0.984934
      py      :     1.106489
      dz2     :     0.013517  d :     0.082413
      dxz     :     0.022036
      dyz     :     0.012296
      dx2y2   :     0.023851
      dxy     :     0.010713
  3 Brs       :     7.826951  s :     7.826951
      pz      :     5.592688  p :    17.172788
      px      :     5.634920
      py      :     5.945180
      dz2     :     2.011246  d :    10.053953
      dxz     :     2.022946
      dyz     :     2.006747
      dx2y2   :     2.007800
      dxy     :     2.005213
  4 H s       :     0.903547  s :     0.903547
      pz      :     0.015249  p :     0.066215
      px      :     0.034538
      py      :     0.016427
  5 H s       :     0.919418  s :     0.919418
      pz      :     0.033570  p :     0.072399
      px      :     0.017591
      py      :     0.021237
  6 H s       :     0.907102  s :     0.907102
      pz      :     0.015486  p :     0.066081
      px      :     0.013071
      py      :     0.037524
  7 H s       :     0.905083  s :     0.905083
      pz      :     0.015627  p :     0.066253
      px      :     0.012256
      py      :     0.038371
  8 H s       :     0.907354  s :     0.907354
      pz      :     0.030203  p :     0.066304
      px      :     0.014930
      py      :     0.021172
  9 H s       :     0.916328  s :     0.916328
      pz      :     0.046732  p :     0.086809
      px      :     0.014096
      py      :     0.025981
 10 H s       :     0.895047  s :     0.895047
      pz      :     0.014471  p :     0.071109
      px      :     0.012267
      py      :     0.044371
 11 Cls       :     5.983982  s :     5.983982
      pz      :     3.934005  p :    11.873954
      px      :     3.962036
      py      :     3.977914
      dz2     :     0.000140  d :     0.000463
      dxz     :     0.000059
      dyz     :     0.000204
      dx2y2   :     0.000039
      dxy     :     0.000022


                      *****************************
                      * MAYER POPULATION ANALYSIS *
                      *****************************

  NA   - Mulliken gross atomic population
  ZA   - Total nuclear charge
  QA   - Mulliken gross atomic charge
  VA   - Mayer's total valence
  BVA  - Mayer's bonded valence
  FA   - Mayer's free valence

  ATOM       NA         ZA         QA         VA         BVA        FA
  0 C      6.0894     6.0000    -0.0894     3.9619     3.9619     0.0000
  1 C      6.0808     6.0000    -0.0808     4.0246     4.0246    -0.0000
  2 C      6.1172     6.0000    -0.1172     3.8173     3.8173     0.0000
  3 Br    35.2237    35.0000    -0.2237     1.0022     1.0022    -0.0000
  4 H      0.9559     1.0000     0.0441     0.9809     0.9809     0.0000
  5 H      0.9839     1.0000     0.0161     1.0856     1.0856     0.0000
  6 H      0.9603     1.0000     0.0397     0.9835     0.9835     0.0000
  7 H      0.9534     1.0000     0.0466     0.9797     0.9797     0.0000
  8 H      0.9520     1.0000     0.0480     0.9756     0.9756     0.0000
  9 H      0.9403     1.0000     0.0597     1.1191     1.1191     0.0000
 10 H      0.9056     1.0000     0.0944     0.9684     0.9684     0.0000
 11 Cl    17.8374    17.0000    -0.8374     0.3133     0.3133     0.0000

  Mayer bond orders larger than 0.100000
B(  0-C ,  1-C ) :   1.0887 B(  0-C ,  4-H ) :   0.9664 B(  0-C ,  5-H ) :   0.9435 
B(  0-C ,  6-H ) :   0.9712 B(  1-C ,  2-C ) :   1.0410 B(  1-C ,  7-H ) :   0.9479 
B(  1-C ,  8-H ) :   0.9531 B(  2-C ,  3-Br) :   0.9653 B(  2-C ,  9-H ) :   0.8920 
B(  2-C , 10-H ) :   0.9481 B(  5-H , 11-Cl) :   0.1306 B(  9-H , 11-Cl) :   0.2120 



------------------
HIRSHFELD ANALYSIS
------------------

Total integrated alpha density =     38.997935804
Total integrated beta density  =     38.997935804

  ATOM     CHARGE      SPIN    
   0 C   -0.077708    0.000000
   1 C   -0.040847    0.000000
   2 C   -0.001715    0.000000
   3 Br  -0.179187    0.000000
   4 H    0.026404    0.000000
   5 H    0.007184    0.000000
   6 H    0.023803    0.000000
   7 H    0.023742    0.000000
   8 H    0.021883    0.000000
   9 H    0.006524    0.000000
  10 H    0.038926    0.000000
  11 Cl  -0.844881    0.000000

  TOTAL  -0.995872    0.000000

-------
TIMINGS
-------

Total SCF time: 0 days 0 hours 0 min 8 sec 

Total time                  ....       8.442 sec
Sum of individual times     ....       8.086 sec  ( 95.8%)

Fock matrix formation       ....       7.439 sec  ( 88.1%)
  Split-RI-J                ....       1.213 sec  ( 16.3% of F)
  Chain of spheres X        ....       3.657 sec  ( 49.2% of F)
  COS-X 1 center corr.      ....       0.000 sec  (  0.0% of F)
  XC integration            ....       0.374 sec  (  5.0% of F)
    Basis function eval.    ....       0.148 sec  ( 39.6% of XC)
    Density eval.           ....       0.063 sec  ( 16.9% of XC)
    XC-Functional eval.     ....       0.038 sec  ( 10.2% of XC)
    XC-Potential eval.      ....       0.091 sec  ( 24.3% of XC)
Diagonalization             ....       0.011 sec  (  0.1%)
Density matrix formation    ....       0.002 sec  (  0.0%)
Population analysis         ....       0.029 sec  (  0.3%)
Initial guess               ....       0.117 sec  (  1.4%)
Orbital Transformation      ....       0.000 sec  (  0.0%)
Orbital Orthonormalization  ....       0.000 sec  (  0.0%)
DIIS solution               ....       0.003 sec  (  0.0%)
SOSCF solution              ....       0.005 sec  (  0.1%)
Grid generation             ....       0.479 sec  (  5.7%)


-------------------------------------------------------------------------------
                          DFT DISPERSION CORRECTION                            
                                                                               
                              DFTD3 V3.1  Rev 1                                
                          USING Becke-Johnson damping                          
-------------------------------------------------------------------------------
The PBE0 functional is recognized
Active option DFTDOPT                   ...         4   

molecular C6(AA) [au] = 2272.632509 


            DFT-D V3
 parameters
 s6 scaling factor         :     1.0000 
 a1 scaling factor         :     0.4145 
 s8 scaling factor         :     1.2177 
 a2 scaling factor         :     4.8593 
 ad hoc parameters k1-k3   :    16.0000     1.3333    -4.0000 

 Edisp/kcal,au: -5.480024010240  -0.008732973209 
 E6   /kcal   :  -3.367991563 
 E8   /kcal   :  -2.112032447 
 % E8         :  38.540569225 

-------------------------   ----------------
Dispersion correction           -0.008732973
-------------------------   ----------------


-------------------------   --------------------
FINAL SINGLE POINT ENERGY     -3151.922982880353
-------------------------   --------------------


                            ***************************************
                            *     ORCA property calculations      *
                            ***************************************

                                    ---------------------
                                    Active property flags
                                    ---------------------
   (+) Dipole Moment


------------------------------------------------------------------------------
                       ORCA ELECTRIC PROPERTIES CALCULATION
------------------------------------------------------------------------------

Dipole Moment Calculation                       ... on
Quadrupole Moment Calculation                   ... off
Polarizability Calculation                      ... off
GBWName                                         ... manual_reactants_336_freq.gbw
Electron density file                           ... manual_reactants_336_freq.scfp
The origin for moment calculation is the CENTER OF MASS  = (-0.016969, -0.008353 -0.025271)

-------------
DIPOLE MOMENT
-------------
                                X             Y             Z
Electronic contribution:     20.67260       0.83581     -15.23617
Nuclear contribution   :    -21.01197       1.18516      10.86099
                        -----------------------------------------
Total Dipole Moment    :     -0.33937       2.02097      -4.37518
                        -----------------------------------------
Magnitude (a.u.)       :      4.83132
Magnitude (Debye)      :     12.28025



--------------------
Rotational spectrum 
--------------------
 
Rotational constants in cm-1:     0.083294     0.027603     0.021274 
Rotational constants in MHz :  2497.086347   827.525145   637.783977 

 Dipole components along the rotational axes: 
x,y,z [a.u.] :    -4.332097    -2.121865     0.268889 
x,y,z [Debye]:   -11.011316    -5.393351     0.683461 

 
[1631715850.901346] [comp0810:221237:0]            sys.c:618  UCX  ERROR shmget(size=2097152 flags=0xfb0) for mm_recv_desc failed: Operation not permitted, please check shared memory limits by 'ipcs -l'
[1631715850.902137] [comp0810:221239:0]            sys.c:618  UCX  ERROR shmget(size=2097152 flags=0xfb0) for mm_recv_desc failed: Operation not permitted, please check shared memory limits by 'ipcs -l'
[1631715850.901693] [comp0810:221240:0]            sys.c:618  UCX  ERROR shmget(size=2097152 flags=0xfb0) for mm_recv_desc failed: Operation not permitted, please check shared memory limits by 'ipcs -l'
[1631715850.910372] [comp0810:221238:0]            sys.c:618  UCX  ERROR shmget(size=2097152 flags=0xfb0) for mm_recv_desc failed: Operation not permitted, please check shared memory limits by 'ipcs -l'
[1631715850.918035] [comp0810:221237:0]            sys.c:618  UCX  ERROR shmget(size=2097152 flags=0xb80) for ucp_am_bufs failed: Operation not permitted, please check shared memory limits by 'ipcs -l'


           ************************************************************
           *        Program running with 4 parallel MPI-processes     *
           *              working on a common directory               *
           ************************************************************
[1631715850.918036] [comp0810:221239:0]            sys.c:618  UCX  ERROR shmget(size=2097152 flags=0xb80) for ucp_am_bufs failed: Operation not permitted, please check shared memory limits by 'ipcs -l'
[1631715850.917575] [comp0810:221238:0]            sys.c:618  UCX  ERROR shmget(size=2097152 flags=0xb80) for ucp_am_bufs failed: Operation not permitted, please check shared memory limits by 'ipcs -l'
[1631715850.934105] [comp0810:221240:0]            sys.c:618  UCX  ERROR shmget(size=2097152 flags=0xb80) for ucp_am_bufs failed: Operation not permitted, please check shared memory limits by 'ipcs -l'

-------------------------------------------------------------------------------
                               ORCA SCF HESSIAN
-------------------------------------------------------------------------------

Hessian of the Kohn-Sham DFT energy:
Kohn-Sham wavefunction type                      ... RKS
Hartree-Fock exchange scaling                    ...    0.250
Number of operators                              ...    1
Number of atoms                                  ...   12
Basis set dimensions                             ...  127
Integral neglect threshold                       ... 1.0e-10
Integral primitive cutoff                        ... 1.0e-11

Setting up DFT Hessian calculations              ... 
Electron density on the grid                     ... found on disk
Electron density on the final grid               ... found on disk
Building xc-kernel on the grid                   ... done   (      0.0 sec)
Building xc-kernel on the final grid             ... done   (      0.0 sec)
                                                     done   (      0.1 sec)

Nuclear repulsion Hessian                        ... done   (      0.0 sec)

----------------------------------------------
Forming right-hand sides of CP-SCF equations     ...
----------------------------------------------
One electron integral derivatives                ... done   (      4.0 sec)
Transforming the overlap derivative matrices     ... done   (      0.0 sec)
[1631715855.963184] [comp0810:221238:0]            sys.c:618  UCX  ERROR shmget(size=6291456 flags=0xfb0) for mm_recv_desc failed: Operation not permitted, please check shared memory limits by 'ipcs -l'
Adding tr(S(x)F(y) C-PCM term to the hessian     ... done   (      0.6 sec)
Making the Q(x) pseudodensities                  ... done   (      0.0 sec)
Adding the E*S(x)*S(y) terms to the Hessian      ... done   (      0.0 sec)
Calculating energy weighted overlap derivatives  ... done   (      0.0 sec)
Two electron integral derivatives (RI)           ... done   (      2.1 sec)
Exchange-correlation integral derivatives        ... done   (      3.7 sec)
tr(F(y)Q(x)) contribution to the Hessian         ... done   (      0.0 sec)
Response fock operator R(S(x)) (RIJCOSX)         ... done   (      2.5 sec)
XC Response fock operator R(S(x))                ... done   (      1.3 sec)
tr(F(y)S(x)) contribution to the Hessian         ... done   (      0.0 sec)
Transforming and finalizing RHSs                 ... done   (      0.0 sec)

----------------------------------------------
Solving the CP-SCF equations (RIJCOSX)           ...
----------------------------------------------
     CP-SCF ITERATION   0: 
     CP-SCF ITERATION   1:      0.000507313293
     CP-SCF ITERATION   2:      0.000031134272
     CP-SCF ITERATION   3:      0.000005050785
     CP-SCF ITERATION   4:      0.000000975328

                                                 ... done   (     10.0 sec)
Forming perturbed density Hessian contributions  ... done   (      0.0 sec)
Calculating [Q*(d^2 A/dXdY)*Q  ] C-PCM term      ... done   (      0.0 sec)
Calculating [d^2(V_N)/(dXdY)*Q ] C-PCM term      ... done   (      0.0 sec)
Calculating [d^2(V_el)/(dXdY)*Q] C-PCM term      ... done   (      0.4 sec)
Calculating C-PCM term that depends on dQ/dX     ... done   (      0.0 sec)
2nd integral derivative contribs (RI)            ... done   (      9.6 sec)
Exchange-correlation Hessian                     ... done   (      4.1 sec)
Dispersion correction in the Hessian             ... done   (      0.6 sec)
Dipol derivatives                                ... done   (      0.2 sec)

Total SCF Hessian time: 0 days 0 hours 0 min 40 sec 

Writing the Hessian file to the disk             ... done


Maximum memory used throughout the entire calculation: 137.7 MB

-----------------------
VIBRATIONAL FREQUENCIES
-----------------------

Scaling factor for frequencies =  1.000000000  (already applied!)

   0:         0.00 cm**-1
   1:         0.00 cm**-1
   2:         0.00 cm**-1
   3:         0.00 cm**-1
   4:         0.00 cm**-1
   5:         0.00 cm**-1
   6:        42.71 cm**-1
   7:        70.15 cm**-1
   8:       111.49 cm**-1
   9:       139.04 cm**-1
  10:       218.10 cm**-1
  11:       273.24 cm**-1
  12:       313.38 cm**-1
  13:       646.40 cm**-1
  14:       757.28 cm**-1
  15:       865.26 cm**-1
  16:       920.04 cm**-1
  17:      1053.99 cm**-1
  18:      1075.48 cm**-1
  19:      1125.57 cm**-1
  20:      1228.83 cm**-1
  21:      1262.30 cm**-1
  22:      1306.24 cm**-1
  23:      1354.56 cm**-1
  24:      1385.99 cm**-1
  25:      1449.11 cm**-1
  26:      1452.34 cm**-1
  27:      1462.52 cm**-1
  28:      1477.77 cm**-1
  29:      3037.55 cm**-1
  30:      3053.74 cm**-1
  31:      3064.20 cm**-1
  32:      3110.49 cm**-1
  33:      3137.35 cm**-1
  34:      3147.19 cm**-1
  35:      3164.80 cm**-1


------------
NORMAL MODES
------------

These modes are the Cartesian displacements weighted by the diagonal matrix
M(i,i)=1/sqrt(m[i]) where m[i] is the mass of the displaced atom
Thus, these vectors are normalized but *not* orthogonal

                  0          1          2          3          4          5    
      0       0.000000   0.000000   0.000000   0.000000   0.000000   0.000000
      1       0.000000   0.000000   0.000000   0.000000   0.000000   0.000000
      2       0.000000   0.000000   0.000000   0.000000   0.000000   0.000000
      3       0.000000   0.000000   0.000000   0.000000   0.000000   0.000000
      4       0.000000   0.000000   0.000000   0.000000   0.000000   0.000000
      5       0.000000   0.000000   0.000000   0.000000   0.000000   0.000000
      6       0.000000   0.000000   0.000000   0.000000   0.000000   0.000000
      7       0.000000   0.000000   0.000000   0.000000   0.000000   0.000000
      8       0.000000   0.000000   0.000000   0.000000   0.000000   0.000000
      9       0.000000   0.000000   0.000000   0.000000   0.000000   0.000000
     10       0.000000   0.000000   0.000000   0.000000   0.000000   0.000000
     11       0.000000   0.000000   0.000000   0.000000   0.000000   0.000000
     12       0.000000   0.000000   0.000000   0.000000   0.000000   0.000000
     13       0.000000   0.000000   0.000000   0.000000   0.000000   0.000000
     14       0.000000   0.000000   0.000000   0.000000   0.000000   0.000000
     15       0.000000   0.000000   0.000000   0.000000   0.000000   0.000000
     16       0.000000   0.000000   0.000000   0.000000   0.000000   0.000000
     17       0.000000   0.000000   0.000000   0.000000   0.000000   0.000000
     18       0.000000   0.000000   0.000000   0.000000   0.000000   0.000000
     19       0.000000   0.000000   0.000000   0.000000   0.000000   0.000000
     20       0.000000   0.000000   0.000000   0.000000   0.000000   0.000000
     21       0.000000   0.000000   0.000000   0.000000   0.000000   0.000000
     22       0.000000   0.000000   0.000000   0.000000   0.000000   0.000000
     23       0.000000   0.000000   0.000000   0.000000   0.000000   0.000000
     24       0.000000   0.000000   0.000000   0.000000   0.000000   0.000000
     25       0.000000   0.000000   0.000000   0.000000   0.000000   0.000000
     26       0.000000   0.000000   0.000000   0.000000   0.000000   0.000000
     27       0.000000   0.000000   0.000000   0.000000   0.000000   0.000000
     28       0.000000   0.000000   0.000000   0.000000   0.000000   0.000000
     29       0.000000   0.000000   0.000000   0.000000   0.000000   0.000000
     30       0.000000   0.000000   0.000000   0.000000   0.000000   0.000000
     31       0.000000   0.000000   0.000000   0.000000   0.000000   0.000000
     32       0.000000   0.000000   0.000000   0.000000   0.000000   0.000000
     33       0.000000   0.000000   0.000000   0.000000   0.000000   0.000000
     34       0.000000   0.000000   0.000000   0.000000   0.000000   0.000000
     35       0.000000   0.000000   0.000000   0.000000   0.000000   0.000000
                  6          7          8          9         10         11    
      0       0.164551  -0.072181   0.092632   0.034572   0.048990   0.017925
      1      -0.117721  -0.035598  -0.216554  -0.113442   0.048856  -0.001359
      2       0.115918  -0.111396   0.161141   0.000147   0.172101  -0.019000
      3       0.090609  -0.066301   0.008009  -0.007076  -0.229687   0.027620
      4       0.006149   0.178704   0.115618   0.124251  -0.046417  -0.053327
      5       0.039523  -0.127053   0.054211  -0.057097  -0.081962   0.003906
      6       0.152820  -0.026337   0.045032  -0.042816  -0.183494   0.001270
      7      -0.179547  -0.095935   0.008843   0.319132  -0.079075   0.035510
      8       0.025542   0.013923   0.048828  -0.120286  -0.183931  -0.009357
      9       0.011413  -0.005484   0.004016   0.000368   0.065329  -0.008765
     10       0.070722  -0.008911  -0.022495  -0.028978   0.012852   0.001389
     11      -0.163995   0.015534   0.014340  -0.006374   0.006511   0.002955
     12       0.132679  -0.094204   0.081228   0.089218  -0.086760  -0.145830
     13      -0.040655   0.098845  -0.161939  -0.265094   0.185194   0.540077
     14       0.117713  -0.214622   0.125791   0.021474   0.432827  -0.196484
     15       0.197902  -0.120783   0.183677   0.178643   0.209414  -0.261578
     16      -0.237245  -0.255397  -0.426804  -0.113072   0.003005  -0.411097
     17       0.024100  -0.235038  -0.016398  -0.059305   0.075357  -0.172332
     18       0.220566  -0.009205   0.084551  -0.135626   0.277685   0.472722
     19      -0.153988  -0.103765  -0.305525  -0.160969   0.065742  -0.037575
     20       0.262607   0.141324   0.454125   0.080525   0.221591   0.311179
     21      -0.012154  -0.177379  -0.006904   0.148541  -0.354323   0.052234
     22       0.067408   0.272240   0.206769   0.143711  -0.053062  -0.069904
     23      -0.158190  -0.422124  -0.220246  -0.091007  -0.079412   0.056227
     24       0.089017   0.011291  -0.069129  -0.147560  -0.360346   0.025425
     25       0.188981   0.454283   0.329606   0.095752  -0.015745  -0.100208
     26       0.168627   0.037974   0.232775  -0.024421  -0.010707  -0.028547
     27       0.180933  -0.128289   0.024611  -0.037424  -0.207127   0.026765
     28      -0.362129  -0.286426  -0.062006   0.523762  -0.058598   0.115696
     29      -0.109262  -0.071382   0.009212   0.013084  -0.162269   0.034134
     30       0.231567   0.110288   0.126550  -0.083414  -0.212489  -0.062832
     31      -0.231799  -0.145893  -0.008051   0.375635  -0.082416   0.056599
     32       0.260360   0.222014   0.109752  -0.390266  -0.164058  -0.095666
     33      -0.193524   0.079805  -0.070474   0.004008  -0.002980   0.000853
     34      -0.038882   0.003139   0.094064  -0.063524  -0.004256   0.000705
     35       0.292189   0.056465  -0.141578   0.087201   0.008194   0.004225
                 12         13         14         15         16         17    
      0      -0.326918   0.078308   0.002319  -0.009062   0.151312  -0.040783
      1      -0.033694  -0.001619  -0.010853   0.047859   0.030175   0.063182
      2       0.073495  -0.046357   0.001998  -0.015322  -0.020857   0.040984
      3      -0.105096  -0.033883   0.013478  -0.004841   0.038989   0.073344
      4       0.035862  -0.024680  -0.062360   0.036638   0.036933  -0.066799
      5       0.212499  -0.083915   0.018694  -0.014374   0.101820  -0.029360
      6      -0.025221  -0.273208   0.008196   0.013607  -0.144785  -0.017959
      7       0.049066   0.103135  -0.034040  -0.093804  -0.040479   0.059459
      8       0.069933   0.411156   0.026071   0.038761  -0.034020  -0.034668
      9       0.083956   0.032094  -0.000256  -0.000811   0.002703   0.000718
     10      -0.006505  -0.014414   0.001983   0.004696  -0.000795  -0.005753
     11      -0.060627  -0.049877  -0.001370  -0.001438  -0.002224   0.000583
     12      -0.255967  -0.028561  -0.033168   0.065108   0.402911   0.032167
     13       0.033680   0.043722   0.078273  -0.181943  -0.088054  -0.114878
     14      -0.246085   0.247504   0.000668   0.046174  -0.672589   0.030855
     15      -0.571022   0.272287  -0.121345   0.233823  -0.232192   0.032469
     16      -0.166908   0.050362   0.135147  -0.156402  -0.107786  -0.090235
     17       0.085919  -0.091840   0.147409  -0.245965   0.042287  -0.085305
     18      -0.392213   0.261631   0.097778  -0.198655  -0.243460  -0.209710
     19      -0.073681   0.028944   0.076549  -0.095458  -0.022410  -0.038511
     20       0.174417  -0.065710  -0.241720   0.363629  -0.040773   0.296929
     21      -0.095707   0.159931  -0.173501  -0.247341  -0.148127  -0.164930
     22       0.031417  -0.023273   0.097779  -0.054210   0.012605  -0.028310
     23       0.226026  -0.046194  -0.476182   0.219151   0.161224  -0.169796
     24      -0.111787   0.099635   0.075937   0.294070  -0.153496   0.334815
     25      -0.002453  -0.011941   0.398616  -0.059514   0.035430   0.138458
     26       0.187768  -0.118644   0.317962  -0.192510   0.178468   0.012518
     27       0.074952  -0.293377   0.131397   0.025588  -0.159224   0.289722
     28       0.084982  -0.003020   0.296693   0.279156  -0.046837  -0.089651
     29       0.054634   0.361910   0.198293   0.288999  -0.036602  -0.274886
     30       0.047199  -0.295515  -0.228094  -0.105027  -0.227457  -0.535685
     31       0.064849   0.115557   0.055760   0.011706  -0.042158   0.006030
     32      -0.030452   0.363343  -0.354716  -0.461417  -0.018764   0.410837
     33       0.002786   0.000174  -0.000415   0.000008   0.000126  -0.000276
     34      -0.001899   0.000757  -0.000513  -0.000132   0.000140   0.000220
     35       0.003193  -0.001243  -0.001148  -0.000344   0.000104   0.000205
                 18         19         20         21         22         23    
      0      -0.056563  -0.055914  -0.006295   0.037666   0.000017   0.013411
      1       0.005216  -0.043657   0.098800  -0.034106  -0.047981   0.021354
      2       0.190665  -0.064230  -0.019412   0.057012   0.003436   0.049511
      3       0.165721   0.102112   0.008530  -0.076532   0.038022  -0.152096
      4       0.027649   0.084261  -0.128225   0.012570  -0.023742  -0.027986
      5      -0.162210   0.157200   0.026364  -0.044130   0.015316   0.055994
      6      -0.061041  -0.168084  -0.067128  -0.064674  -0.006054   0.069984
      7      -0.052138  -0.066281   0.038090   0.008100   0.063477   0.003564
      8      -0.008357  -0.098620   0.002973   0.036620  -0.030793  -0.043263
      9      -0.001886   0.002400  -0.000660  -0.000607   0.000010   0.001135
     10       0.002126   0.000487   0.002385   0.000355   0.000695  -0.000245
     11      -0.001911   0.001181   0.001565   0.003815  -0.001201  -0.002218
     12      -0.009194  -0.199113   0.106885   0.064244  -0.042954   0.144995
     13       0.091128   0.034032  -0.202437   0.104656   0.039123  -0.040418
     14      -0.098530   0.325253   0.009995  -0.212195   0.030502  -0.280211
     15      -0.396956   0.253216   0.079156  -0.089379  -0.046442   0.121731
     16       0.024087   0.122026  -0.134175  -0.020405   0.057231  -0.165836
     17       0.346134  -0.081384  -0.204626   0.114458   0.095484  -0.122008
     18      -0.245854   0.319346  -0.136608  -0.035058   0.091524   0.019358
     19       0.022604   0.010341  -0.022499   0.033727  -0.002327   0.085905
     20       0.067600  -0.070134   0.295976  -0.207177  -0.106697  -0.191970
     21       0.435128   0.452723   0.174898  -0.034123  -0.655385   0.408564
     22       0.024339   0.127728  -0.000139  -0.022405  -0.088582   0.087209
     23      -0.126646   0.090394  -0.329576   0.069929   0.118975  -0.234305
     24       0.152546   0.497879  -0.001257   0.418998   0.435313   0.494187
     25      -0.058192   0.117295   0.141980   0.015336   0.092068  -0.003074
     26      -0.218821   0.038889   0.222249  -0.227324  -0.053122  -0.177797
     27      -0.421847   0.003897  -0.091612   0.640019  -0.452740  -0.349219
     28      -0.016429  -0.070738  -0.099761  -0.005074  -0.075424   0.121500
     29       0.167646  -0.189447  -0.080670  -0.276612   0.059571   0.217171
     30       0.051272  -0.071933   0.693959   0.331767   0.275005  -0.130616
     31      -0.023862  -0.069427   0.016552   0.020565   0.021555  -0.028727
     32      -0.218481  -0.153263  -0.160481  -0.151709   0.095777   0.230321
     33       0.000315   0.000174   0.000004  -0.000416   0.000391   0.000558
     34      -0.000072  -0.000111   0.000234   0.000157  -0.000014  -0.000016
     35      -0.000197   0.000380   0.000137  -0.000045  -0.000051  -0.000201
                 24         25         26         27         28         29    
      0      -0.122602   0.008980  -0.003222  -0.004318  -0.021589   0.029826
      1       0.008401  -0.013968   0.034513   0.008038  -0.025754  -0.002711
      2       0.093601   0.023926   0.002383   0.003087  -0.028849  -0.041101
      3       0.069710  -0.002019  -0.031100   0.021835  -0.047569  -0.001581
      4       0.004374  -0.032134  -0.000284   0.001215  -0.025124  -0.000182
      5      -0.028210  -0.037568  -0.043776  -0.036428  -0.036978  -0.000398
      6      -0.012672   0.015288   0.028355  -0.050996   0.017306   0.001316
      7      -0.000990   0.008009   0.011439  -0.041020   0.003525  -0.000223
      8       0.011978   0.000862   0.013403  -0.055078  -0.001570   0.004224
      9      -0.000607  -0.000259  -0.000350   0.000420  -0.000121   0.000031
     10       0.000033   0.000111  -0.000010  -0.000238  -0.000023   0.000002
     11       0.000392   0.000110   0.000451  -0.000994  -0.000049  -0.000022
     12       0.144163  -0.159359   0.139103   0.006939   0.077303  -0.477442
     13      -0.175460   0.409457  -0.469422  -0.087593  -0.003463  -0.201649
     14      -0.480510  -0.015644   0.189065   0.083325  -0.337560  -0.156140
     15       0.516845   0.302456  -0.387367  -0.092392   0.127343   0.201653
     16      -0.072932  -0.135690  -0.252194  -0.082980   0.544965  -0.318166
     17      -0.226552  -0.184358  -0.025349  -0.021428   0.290911   0.473619
     18       0.442945  -0.407197   0.325922   0.042059   0.204915  -0.067763
     19       0.180211   0.007024   0.104100   0.026999  -0.138992   0.550850
     20      -0.248669  -0.220505  -0.123552  -0.048903   0.481059   0.159691
     21      -0.152569   0.140738   0.123981   0.031535   0.163923   0.000130
     22      -0.021644  -0.155121  -0.116282  -0.074425  -0.099025   0.014484
     23       0.013007   0.375542   0.357087   0.208928   0.224721   0.003240
     24      -0.202574  -0.001608   0.077831  -0.051613   0.090906   0.005914
     25      -0.036866   0.394333   0.315855   0.170248   0.266537  -0.011141
     26       0.041379   0.279695   0.146112   0.116781   0.122645   0.015377
     27       0.048214  -0.088751  -0.056469   0.180088  -0.029376  -0.017995
     28      -0.018867  -0.101726  -0.190414   0.617418   0.001597   0.030801
     29      -0.025065  -0.031254  -0.090780   0.296999   0.016492  -0.043603
     30       0.024284  -0.039379  -0.118754   0.253902  -0.009682  -0.000563
     31       0.005858   0.021732   0.051716  -0.160410   0.003256  -0.029074
     32      -0.038162  -0.069954  -0.157091   0.517528   0.014231  -0.005240
     33       0.000228   0.000243  -0.000153  -0.000139   0.000061   0.000039
     34      -0.000096   0.000144   0.000377  -0.000337  -0.000250   0.000024
     35       0.000328   0.000286   0.000065  -0.000592  -0.000156  -0.000030
                 30         31         32         33         34         35    
      0       0.000810  -0.004353   0.005123  -0.003227  -0.072264  -0.004928
      1      -0.001364  -0.001256  -0.029193  -0.088454  -0.002467   0.005542
      2      -0.004510  -0.004336   0.006640   0.004109  -0.059288  -0.004316
      3       0.009411   0.012198  -0.018164   0.005191  -0.002488  -0.004822
      4       0.008263   0.021788   0.081948  -0.027160   0.004295   0.016730
      5       0.032516   0.055225  -0.025217   0.006897  -0.006912  -0.006071
      6      -0.025783   0.012024   0.000089  -0.000339   0.000634  -0.007003
      7       0.002501  -0.000620  -0.014142   0.010991  -0.007693   0.091280
      8      -0.058720   0.032403  -0.000055  -0.000721   0.000340  -0.015618
      9       0.000012   0.000063  -0.000007   0.000002  -0.000011  -0.000011
     10      -0.000014  -0.000014  -0.000007   0.000001   0.000002  -0.000109
     11       0.000168  -0.000155   0.000003   0.000001   0.000002   0.000056
     12      -0.015845   0.052386   0.036693   0.286562   0.684360   0.030614
     13      -0.006247   0.021908   0.008300   0.106183   0.281304   0.011783
     14      -0.003080   0.019167   0.012186   0.090397   0.217497   0.009058
     15       0.015679   0.008204  -0.069482  -0.149312   0.193846   0.022454
     16      -0.026710  -0.015872   0.103076   0.223148  -0.324798  -0.037440
     17       0.039198   0.021347  -0.161482  -0.357570   0.480788   0.057906
     18      -0.007406  -0.002320  -0.028940  -0.098968  -0.019191   0.007167
     19       0.047647   0.007856   0.236987   0.728525   0.071544  -0.043476
     20       0.013452   0.000632   0.070705   0.217117   0.014152  -0.014686
     21       0.015006   0.029658   0.026117  -0.010230   0.000769   0.003758
     22      -0.300406  -0.600222  -0.622309   0.210282   0.000436  -0.120682
     23      -0.091822  -0.187576  -0.210672   0.071237   0.000734  -0.040384
     24      -0.102647  -0.179833   0.193469  -0.055015   0.025854   0.046018
     25       0.209096   0.342715  -0.358099   0.108926  -0.052410  -0.078420
     26      -0.278320  -0.464203   0.511554  -0.154268   0.076167   0.111254
     27       0.259465  -0.139429  -0.011623   0.011605  -0.006537   0.147567
     28      -0.419523   0.227789   0.018399  -0.019429   0.011717  -0.224026
     29       0.601327  -0.328234  -0.030718   0.029876  -0.018057   0.341872
     30       0.023663  -0.012646   0.008623  -0.004854   0.005038  -0.054992
     31       0.385258  -0.219387   0.154999  -0.109863   0.080286  -0.853429
     32       0.069450  -0.041151   0.030028  -0.020871   0.015172  -0.159150
     33      -0.000097   0.000063  -0.000000   0.000019  -0.000002  -0.000060
     34       0.000000  -0.000028  -0.000026  -0.000033   0.000047   0.000037
     35       0.000070  -0.000005   0.000005   0.000042  -0.000052  -0.000013


-----------
IR SPECTRUM
-----------

 Mode    freq (cm**-1)   T**2         TX         TY         TZ
-------------------------------------------------------------------
   6:        42.71   10.723157  (  2.285128   0.078914  -2.344167)
   7:        70.15    5.511320  ( -1.987868   0.186249  -1.234913)
   8:       111.49   22.733969  (  1.947048  -1.989083   3.871243)
   9:       139.04   17.403572  (  0.155239   2.492092  -3.341998)
  10:       218.10    0.880930  ( -0.851914  -0.064192  -0.388655)
  11:       273.24    2.430727  ( -0.374744   1.096269  -1.043306)
  12:       313.38    4.809650  ( -2.091990   0.537433   0.379992)
  13:       646.40   62.611217  ( -5.219420  -0.132190   5.945704)
  14:       757.28   12.811919  ( -1.370034   2.772137  -1.802826)
  15:       865.26    3.627477  (  0.288484  -1.492965   1.146870)
  16:       920.04   20.047670  ( -4.459432  -0.169156  -0.364036)
  17:      1053.99    0.978979  (  0.171108  -0.446407  -0.866269)
  18:      1075.48    3.737207  ( -1.828633   0.404577   0.479192)
  19:      1125.57    2.933324  (  1.468859   0.366244   0.801025)
  20:      1228.83   14.162502  ( -2.378421   0.535832   2.866793)
  21:      1262.30   34.884495  ( -5.217549   2.276788   1.574137)
  22:      1306.24    3.920301  (  1.468336  -1.303639   0.254587)
  23:      1354.56   20.676580  (  4.019067  -1.228192  -1.736439)
  24:      1385.99    2.034690  (  1.154332  -0.451603   0.705878)
  25:      1449.11    2.992132  ( -0.398432   1.611145   0.487438)
  26:      1452.34    3.829955  ( -1.451895  -1.094379   0.724079)
  27:      1462.52    2.280044  (  1.318316  -0.201405   0.708182)
  28:      1477.77    9.122559  (  2.263060   0.670509   1.884552)
  29:      3037.55   53.546633  (  6.638521  -1.996223  -2.343452)
  30:      3053.74  143.072119  (  1.017589  -5.802892  10.409758)
  31:      3064.20   25.387730  (  1.638238   4.756902   0.275301)
  32:      3110.49   25.531229  ( -1.769010   3.356609  -3.336915)
  33:      3137.35   36.977803  ( -1.561692  -5.780461  -1.060749)
  34:      3147.19    8.667824  ( -1.997418  -1.688886  -1.351225)
  35:      3164.80   45.516962  ( -0.409315   0.883341   6.676012)

The first frequency considered to be a vibration is 6
The total number of vibrations considered is 30


--------------------------
THERMOCHEMISTRY AT 298.15K
--------------------------

Temperature         ... 298.15 K
Pressure            ... 1.00 atm
Total Mass          ... 158.44 AMU

Throughout the following assumptions are being made:
  (1) The electronic state is orbitally nondegenerate
  (2) There are no thermally accessible electronically excited states
  (3) Hindered rotations indicated by low frequency modes are not
      treated as such but are treated as vibrations and this may
      cause some error
  (4) All equations used are the standard statistical mechanics
      equations for an ideal gas
  (5) All vibrations are strictly harmonic

freq.      42.71  E(vib)   ...       0.53 
freq.      70.15  E(vib)   ...       0.50 
freq.     111.49  E(vib)   ...       0.45 
freq.     139.04  E(vib)   ...       0.42 
freq.     218.10  E(vib)   ...       0.33 
freq.     273.24  E(vib)   ...       0.29 
freq.     313.38  E(vib)   ...       0.25 
freq.     646.40  E(vib)   ...       0.09 
freq.     757.28  E(vib)   ...       0.06 
freq.     865.26  E(vib)   ...       0.04 
freq.     920.04  E(vib)   ...       0.03 
freq.    1053.99  E(vib)   ...       0.02 
freq.    1075.48  E(vib)   ...       0.02 
freq.    1125.57  E(vib)   ...       0.01 
freq.    1228.83  E(vib)   ...       0.01 
freq.    1262.30  E(vib)   ...       0.01 
freq.    1306.24  E(vib)   ...       0.01 
freq.    1354.56  E(vib)   ...       0.01 
freq.    1385.99  E(vib)   ...       0.00 
freq.    1449.11  E(vib)   ...       0.00 
freq.    1452.34  E(vib)   ...       0.00 
freq.    1462.52  E(vib)   ...       0.00 
freq.    1477.77  E(vib)   ...       0.00 
freq.    3037.55  E(vib)   ...       0.00 
freq.    3053.74  E(vib)   ...       0.00 
freq.    3064.20  E(vib)   ...       0.00 
freq.    3110.49  E(vib)   ...       0.00 
freq.    3137.35  E(vib)   ...       0.00 
freq.    3147.19  E(vib)   ...       0.00 
freq.    3164.80  E(vib)   ...       0.00 

------------
INNER ENERGY
------------

The inner energy is: U= E(el) + E(ZPE) + E(vib) + E(rot) + E(trans)
    E(el)   - is the total energy from the electronic structure calculation
              = E(kin-el) + E(nuc-el) + E(el-el) + E(nuc-nuc)
    E(ZPE)  - the the zero temperature vibrational energy from the frequency calculation
    E(vib)  - the the finite temperature correction to E(ZPE) due to population
              of excited vibrational states
    E(rot)  - is the rotational thermal energy
    E(trans)- is the translational thermal energy

Summary of contributions to the inner energy U:
Electronic energy                ...  -3151.92298288 Eh
Zero point energy                ...      0.09501583 Eh      59.62 kcal/mol
Thermal vibrational correction   ...      0.00490871 Eh       3.08 kcal/mol
Thermal rotational correction    ...      0.00141627 Eh       0.89 kcal/mol
Thermal translational correction ...      0.00141627 Eh       0.89 kcal/mol
-----------------------------------------------------------------------
Total thermal energy                  -3151.82022580 Eh


Summary of corrections to the electronic energy:
(perhaps to be used in another calculation)
Total thermal correction                  0.00774125 Eh       4.86 kcal/mol
Non-thermal (ZPE) correction              0.09501583 Eh      59.62 kcal/mol
-----------------------------------------------------------------------
Total correction                          0.10275708 Eh      64.48 kcal/mol


--------
ENTHALPY
--------

The enthalpy is H = U + kB*T
                kB is Boltzmann's constant
Total free energy                 ...  -3151.82022580 Eh 
Thermal Enthalpy correction       ...      0.00094421 Eh       0.59 kcal/mol
-----------------------------------------------------------------------
Total Enthalpy                    ...  -3151.81928160 Eh


Note: Only C1 symmetry has been detected, increase convergence thresholds 
      if your molecule has a higher symmetry. Symmetry factor of 1.0 is   
      used for the rotational entropy correction. 
 

Note: Rotational entropy computed according to Herzberg 
Infrared and Raman Spectra, Chapter V,1, Van Nostrand Reinhold, 1945 
Point Group:  C1, Symmetry Number:   1  
Rotational constants in cm-1:     0.083294     0.027603     0.021274 

Vibrational entropy computed according to the QRRHO of S. Grimme
Chem.Eur.J. 2012 18 9955


-------
ENTROPY
-------

The entropy contributions are T*S = T*(S(el)+S(vib)+S(rot)+S(trans))
     S(el)   - electronic entropy
     S(vib)  - vibrational entropy
     S(rot)  - rotational entropy
     S(trans)- translational entropy
The entropies will be listed as mutliplied by the temperature to get
units of energy

Electronic entropy                ...      0.00000000 Eh      0.00 kcal/mol
Vibrational entropy               ...      0.00910035 Eh      5.71 kcal/mol
Rotational entropy                ...      0.01419653 Eh      8.91 kcal/mol
Translational entropy             ...      0.01952304 Eh     12.25 kcal/mol
-----------------------------------------------------------------------
Final entropy term                ...      0.04281991 Eh     26.87 kcal/mol

In case the symmetry of your molecule has not been determined correctly
or in case you have a reason to use a different symmetry number we print 
out the resulting rotational entropy values for sn=1,12 :
 --------------------------------------------------------
|  sn= 1 | S(rot)=       0.01419653 Eh      8.91 kcal/mol|
|  sn= 2 | S(rot)=       0.01354207 Eh      8.50 kcal/mol|
|  sn= 3 | S(rot)=       0.01315924 Eh      8.26 kcal/mol|
|  sn= 4 | S(rot)=       0.01288761 Eh      8.09 kcal/mol|
|  sn= 5 | S(rot)=       0.01267693 Eh      7.95 kcal/mol|
|  sn= 6 | S(rot)=       0.01250478 Eh      7.85 kcal/mol|
|  sn= 7 | S(rot)=       0.01235924 Eh      7.76 kcal/mol|
|  sn= 8 | S(rot)=       0.01223316 Eh      7.68 kcal/mol|
|  sn= 9 | S(rot)=       0.01212195 Eh      7.61 kcal/mol|
|  sn=10 | S(rot)=       0.01202247 Eh      7.54 kcal/mol|
|  sn=11 | S(rot)=       0.01193248 Eh      7.49 kcal/mol|
|  sn=12 | S(rot)=       0.01185033 Eh      7.44 kcal/mol|
 --------------------------------------------------------


-------------------
GIBBS FREE ENERGY
-------------------

The Gibbs free energy is G = H - T*S

Total enthalpy                    ...  -3151.81928160 Eh 
Total entropy correction          ...     -0.04281991 Eh    -26.87 kcal/mol
-----------------------------------------------------------------------
Final Gibbs free energy         ...  -3151.86210151 Eh

For completeness - the Gibbs free energy minus the electronic energy
G-E(el)                           ...      0.06088137 Eh     38.20 kcal/mol

[1631715893.588612] [comp0810:221279:0]            sys.c:618  UCX  ERROR shmget(size=2097152 flags=0xfb0) for mm_recv_desc failed: Operation not permitted, please check shared memory limits by 'ipcs -l'
[1631715893.594155] [comp0810:221281:0]            sys.c:618  UCX  ERROR shmget(size=2097152 flags=0xfb0) for mm_recv_desc failed: Operation not permitted, please check shared memory limits by 'ipcs -l'
[1631715893.594523] [comp0810:221282:0]            sys.c:618  UCX  ERROR shmget(size=2097152 flags=0xfb0) for mm_recv_desc failed: Operation not permitted, please check shared memory limits by 'ipcs -l'
[1631715893.600971] [comp0810:221280:0]            sys.c:618  UCX  ERROR shmget(size=2097152 flags=0xfb0) for mm_recv_desc failed: Operation not permitted, please check shared memory limits by 'ipcs -l'
[1631715893.608199] [comp0810:221279:0]            sys.c:618  UCX  ERROR shmget(size=2097152 flags=0xb80) for ucp_am_bufs failed: Operation not permitted, please check shared memory limits by 'ipcs -l'
[1631715893.608199] [comp0810:221281:0]            sys.c:618  UCX  ERROR shmget(size=2097152 flags=0xb80) for ucp_am_bufs failed: Operation not permitted, please check shared memory limits by 'ipcs -l'
[1631715893.608613] [comp0810:221280:0]            sys.c:618  UCX  ERROR shmget(size=2097152 flags=0xb80) for ucp_am_bufs failed: Operation not permitted, please check shared memory limits by 'ipcs -l'
[1631715893.608637] [comp0810:221282:0]            sys.c:618  UCX  ERROR shmget(size=2097152 flags=0xb80) for ucp_am_bufs failed: Operation not permitted, please check shared memory limits by 'ipcs -l'

Timings for individual modules:

Sum of individual times         ...       57.026 sec (=   0.950 min)
GTO integral calculation        ...        3.169 sec (=   0.053 min)   5.6 %
SCF iterations                  ...       10.336 sec (=   0.172 min)  18.1 %
Analytical frequency calculation...       43.520 sec (=   0.725 min)  76.3 %
                             ****ORCA TERMINATED NORMALLY****
TOTAL RUN TIME: 0 days 0 hours 0 minutes 59 seconds 89 msec
