
                                 *****************
                                 * O   R   C   A *
                                 *****************

           --- An Ab Initio, DFT and Semiempirical electronic structure package ---

                  #######################################################
                  #                        -***-                        #
                  #          Department of theory and spectroscopy      #
                  #               Directorship: Frank Neese             #
                  #        Max Planck Institute fuer Kohlenforschung    #
                  #                Kaiser Wilhelm Platz 1               #
                  #                 D-45470 Muelheim/Ruhr               #
                  #                      Germany                        #
                  #                                                     #
                  #                  All rights reserved                #
                  #                        -***-                        #
                  #######################################################


                         Program Version 4.2.1 -  RELEASE  -


 With contributions from (in alphabetic order):
   Daniel Aravena         : Magnetic Suceptibility
   Michael Atanasov       : Ab Initio Ligand Field Theory (pilot matlab implementation)
   Alexander A. Auer      : GIAO ZORA, VPT2
   Ute Becker             : Parallelization
   Giovanni Bistoni       : ED, misc. LED, open-shell LED, HFLD
   Martin Brehm           : Molecular dynamics
   Dmytro Bykov           : SCF Hessian
   Vijay G. Chilkuri      : MRCI spin determinant printing, contributions to CSF-ICE
   Dipayan Datta          : RHF DLPNO-CCSD density
   Achintya Kumar Dutta   : EOM-CC, STEOM-CC
   Dmitry Ganyushin       : Spin-Orbit,Spin-Spin,Magnetic field MRCI
   Miquel Garcia          : C-PCM Hessian, Gaussian charge scheme
   Yang Guo               : DLPNO-NEVPT2, CIM, IAO-localization
   Andreas Hansen         : Spin unrestricted coupled pair/coupled cluster methods
   Benjamin Helmich-Paris : CASSCF linear response (MC-RPA)
   Lee Huntington         : MR-EOM, pCC
   Robert Izsak           : Overlap fitted RIJCOSX, COSX-SCS-MP3, EOM
   Christian Kollmar      : KDIIS, OOCD, Brueckner-CCSD(T), CCSD density
   Simone Kossmann        : Meta GGA functionals, TD-DFT gradient, OOMP2, MP2 Hessian
   Martin Krupicka        : AUTO-CI
   Lucas Lang             : DCDCAS
   Dagmar Lenk            : GEPOL surface, SMD
   Dimitrios Liakos       : Extrapolation schemes; Compound Job, initial MDCI parallelization
   Dimitrios Manganas     : Further ROCIS development; embedding schemes
   Dimitrios Pantazis     : SARC Basis sets
   Taras Petrenko         : DFT Hessian,TD-DFT gradient, ASA, ECA, R-Raman, ABS, FL, XAS/XES, NRVS
   Peter Pinski           : DLPNO-MP2, DLPNO-MP2 Gradient
   Christoph Reimann      : Effective Core Potentials
   Marius Retegan         : Local ZFS, SOC
   Christoph Riplinger    : Optimizer, TS searches, QM/MM, DLPNO-CCSD(T), (RO)-DLPNO pert. Triples
   Tobias Risthaus        : Range-separated hybrids, TD-DFT gradient, RPA, STAB
   Michael Roemelt        : Original ROCIS implementation
   Masaaki Saitow         : Open-shell DLPNO-CCSD energy and density
   Barbara Sandhoefer     : DKH picture change effects
   Avijit Sen             : IP-ROCIS
   Kantharuban Sivalingam : CASSCF convergence, NEVPT2, FIC-MRCI
   Bernardo de Souza      : ESD, SOC TD-DFT
   Georgi Stoychev        : AutoAux, RI-MP2 NMR
   Willem Van den Heuvel  : Paramagnetic NMR
   Boris Wezisla          : Elementary symmetry handling
   Frank Wennmohs         : Technical directorship


 We gratefully acknowledge several colleagues who have allowed us to
 interface, adapt or use parts of their codes:
   Stefan Grimme, W. Hujo, H. Kruse,             : VdW corrections, initial TS optimization,
                  C. Bannwarth                     DFT functionals, gCP, sTDA/sTD-DF
   Ed Valeev, F. Pavosevic, A. Kumar             : LibInt (2-el integral package), F12 methods
   Garnet Chan, S. Sharma, J. Yang, R. Olivares  : DMRG
   Ulf Ekstrom                                   : XCFun DFT Library
   Mihaly Kallay                                 : mrcc  (arbitrary order and MRCC methods)
   Andreas Klamt, Michael Diedenhofen            : otool_cosmo (COSMO solvation model)
   Jiri Pittner, Ondrej Demel                    : Mk-CCSD
   Frank Weinhold                                : gennbo (NPA and NBO analysis)
   Christopher J. Cramer and Donald G. Truhlar   : smd solvation model
   Lars Goerigk                                  : TD-DFT with DH, B97 family of functionals
   V. Asgeirsson, H. Jonsson                     : NEB implementation
   FAccTs GmbH                                   : IRC, NEB, NEB-TS, Multilevel, MM, QM/MM, CI optimization
   S Lehtola, MJT Oliveira, MAL Marques          : LibXC Library


 Your calculation uses the libint2 library for the computation of 2-el integrals
 For citations please refer to: http://libint.valeyev.net

 Your ORCA version has been built with support for libXC version: 4.2.3
 For citations please refer to: https://tddft.org/programs/libxc/

 This ORCA versions uses:
   CBLAS   interface :  Fast vector & matrix operations
   LAPACKE interface :  Fast linear algebra routines
   SCALAPACK package :  Parallel linear algebra routines


----- Orbital basis set information -----
Your calculation utilizes the basis: def2-TZVP
   F. Weigend and R. Ahlrichs, Phys. Chem. Chem. Phys. 7, 3297 (2005).

================================================================================
                                        WARNINGS
                       Please study these warnings very carefully!
================================================================================


WARNING: MDCI localization with Augmented Hessian Foster-Boys
  ===> : Switching off randomization!

WARNING: Post HF methods need fully converged wavefunctions
  ===> : Setting SCFConvForced true
         You can overwrite this default with %scf ConvForced false 


INFO   : the flag for use of LIBINT has been found!

================================================================================
                                       INPUT FILE
================================================================================
NAME = manual_reactants_345_sp.inp
|  1> ! SP CCSD(T) def2-TZVP CPCM(DMF)
|  2> %cpcm
|  3> surfacetype vdw_gaussian
|  4> end
|  5> %geom MaxIter 100 end
|  6> %output 
|  7> xyzfile=True 
|  8> end 
|  9> %scf 
| 10> maxiter 250 
| 11> end
| 12> %output
| 13> Print[P_Hirshfeld] = 1
| 14> end
| 15> % maxcore
| 16> 4000
| 17> %pal nprocs 4
| 18> end
| 19> *xyz -1 1
| 20>   C   1.08703910089457     -0.61784529525553      1.12929323184767
| 21>   C   0.23916291012256     -0.59829919346874     -0.14774930609674
| 22>   C   1.14814828236460     -0.54186383417019     -1.37441447520342
| 23>   C   -0.62638661892706     -1.85681921693171     -0.19686196900493
| 24>   C   -0.61780478366297      0.66120317862737     -0.05148566580328
| 25>   Br  -1.77775488010328      0.97731595768148     -1.60620328159362
| 26>   H   0.46500088356725     -0.65796710296079      2.03657234548968
| 27>   H   1.74497031887200     -1.49876375691643      1.15895856709314
| 28>   H   1.73651928574639      0.26693841362250      1.21330950240572
| 29>   H   0.55915656626229     -0.55418852027227     -2.30436636246015
| 30>   H   1.82626187551327     -1.40933311524485     -1.38930099330721
| 31>   H   1.76379853918479      0.37226445750129     -1.37241139795702
| 32>   H   -1.26564730004883     -1.87014248399097     -1.09355967936359
| 33>   H   -1.27843056324233     -1.92829166041840      0.68882326567781
| 34>   H   0.01403904077846     -2.75282048476135     -0.22068989677533
| 35>   H   -1.30259173264883      0.62216239124371      0.80639722629980
| 36>   H   0.00472859222943      1.56275730820773      0.02447479812327
| 37>   Cl  3.18107048309771     -1.13791704249283      3.90307409062819
| 38> *
| 39> 
| 40>                          ****END OF INPUT****
================================================================================

                       ****************************
                       * Single Point Calculation *
                       ****************************

---------------------------------
CARTESIAN COORDINATES (ANGSTROEM)
---------------------------------
  C      1.087039   -0.617845    1.129293
  C      0.239163   -0.598299   -0.147749
  C      1.148148   -0.541864   -1.374414
  C     -0.626387   -1.856819   -0.196862
  C     -0.617805    0.661203   -0.051486
  Br    -1.777755    0.977316   -1.606203
  H      0.465001   -0.657967    2.036572
  H      1.744970   -1.498764    1.158959
  H      1.736519    0.266938    1.213310
  H      0.559157   -0.554189   -2.304366
  H      1.826262   -1.409333   -1.389301
  H      1.763799    0.372264   -1.372411
  H     -1.265647   -1.870142   -1.093560
  H     -1.278431   -1.928292    0.688823
  H      0.014039   -2.752820   -0.220690
  H     -1.302592    0.622162    0.806397
  H      0.004729    1.562757    0.024475
  Cl     3.181070   -1.137917    3.903074

----------------------------
CARTESIAN COORDINATES (A.U.)
----------------------------
  NO LB      ZA    FRAG     MASS         X           Y           Z
   0 C     6.0000    0    12.011    2.054206   -1.167558    2.134055
   1 C     6.0000    0    12.011    0.451952   -1.130622   -0.279206
   2 C     6.0000    0    12.011    2.169686   -1.023974   -2.597267
   3 C     6.0000    0    12.011   -1.183699   -3.508880   -0.372015
   4 C     6.0000    0    12.011   -1.167482    1.249493   -0.097294
   5 Br   35.0000    0    79.900   -3.359470    1.846860   -3.035284
   6 H     1.0000    0     1.008    0.878724   -1.243378    3.848564
   7 H     1.0000    0     1.008    3.297516   -2.832253    2.190114
   8 H     1.0000    0     1.008    3.281546    0.504440    2.292823
   9 H     1.0000    0     1.008    1.056653   -1.047265   -4.354621
  10 H     1.0000    0     1.008    3.451135   -2.663254   -2.625398
  11 H     1.0000    0     1.008    3.333096    0.703478   -2.593482
  12 H     1.0000    0     1.008   -2.391727   -3.534057   -2.066528
  13 H     1.0000    0     1.008   -2.415884   -3.643943    1.301687
  14 H     1.0000    0     1.008    0.026530   -5.202077   -0.417043
  15 H     1.0000    0     1.008   -2.461542    1.175717    1.523870
  16 H     1.0000    0     1.008    0.008936    2.953183    0.046251
  17 Cl   17.0000    0    35.453    6.011352   -2.150352    7.375741

--------------------------------
INTERNAL COORDINATES (ANGSTROEM)
--------------------------------
 C      0   0   0     0.000000000000     0.00000000     0.00000000
 C      1   0   0     1.533008065436     0.00000000     0.00000000
 C      2   1   0     1.527791475899   109.89196164     0.00000000
 C      2   1   3     1.528221414047   109.23982978   120.73334260
 C      2   1   3     1.526435895133   105.57471633   240.53681833
 Br     5   2   1     1.965339253198   114.46761496   178.03725560
 H      1   2   3     1.100770954068   111.99493525   179.97077907
 H      1   2   3     1.099895838614   111.31644461   299.27299524
 H      1   2   3     1.100784018657   112.31250355    58.95535716
 H      3   2   1     1.100851330624   111.07045855   178.48488030
 H      3   2   1     1.101164205395   110.37384887    58.70974002
 H      3   2   1     1.102116048643   111.19432155   298.83992693
 H      4   2   1     1.101316717223   111.40038784   178.94293220
 H      4   2   1     1.102137899916   111.26347566    58.28470960
 H      4   2   1     1.101603861514   109.95280022   298.71115383
 H      5   2   1     1.098371706274   111.71236111   296.95008579
 H      5   2   1     1.098233875248   111.31402849    59.29275922
 Cl     8   1   2     3.118134705157   101.92016417   181.26107938

---------------------------
INTERNAL COORDINATES (A.U.)
---------------------------
 C      0   0   0     0.000000000000     0.00000000     0.00000000
 C      1   0   0     2.896965404767     0.00000000     0.00000000
 C      2   1   0     2.887107479188   109.89196164     0.00000000
 C      2   1   3     2.887919944544   109.23982978   120.73334260
 C      2   1   3     2.884545802788   105.57471633   240.53681833
 Br     5   2   1     3.713952948790   114.46761496   178.03725560
 H      1   2   3     2.080155639364   111.99493525   179.97077907
 H      1   2   3     2.078501910819   111.31644461   299.27299524
 H      1   2   3     2.080180327858   112.31250355    58.95535716
 H      3   2   1     2.080307529042   111.07045855   178.48488030
 H      3   2   1     2.080898776673   110.37384887    58.70974002
 H      3   2   1     2.082697499734   111.19432155   298.83992693
 H      4   2   1     2.081186982262   111.40038784   178.94293220
 H      4   2   1     2.082738792656   111.26347566    58.28470960
 H      4   2   1     2.081729606332   109.95280022   298.71115383
 H      5   2   1     2.075621718106   111.71236111   296.95008579
 H      5   2   1     2.075361255215   111.31402849    59.29275922
 Cl     8   1   2     5.892420641422   101.92016417   181.26107938

---------------------
BASIS SET INFORMATION
---------------------
There are 4 groups of distinct atoms

 Group   1 Type C   : 11s6p2d1f contracted to 5s3p2d1f pattern {62111/411/11/1}
 Group   2 Type Br  : 17s13p8d1f contracted to 6s5p4d1f pattern {842111/64111/5111/1}
 Group   3 Type H   : 5s1p contracted to 3s1p pattern {311/1}
 Group   4 Type Cl  : 14s9p3d1f contracted to 5s5p2d1f pattern {73211/51111/21/1}

Atom   0C    basis set group =>   1
Atom   1C    basis set group =>   1
Atom   2C    basis set group =>   1
Atom   3C    basis set group =>   1
Atom   4C    basis set group =>   1
Atom   5Br   basis set group =>   2
Atom   6H    basis set group =>   3
Atom   7H    basis set group =>   3
Atom   8H    basis set group =>   3
Atom   9H    basis set group =>   3
Atom  10H    basis set group =>   3
Atom  11H    basis set group =>   3
Atom  12H    basis set group =>   3
Atom  13H    basis set group =>   3
Atom  14H    basis set group =>   3
Atom  15H    basis set group =>   3
Atom  16H    basis set group =>   3
Atom  17Cl   basis set group =>   4
[1632406853.564903] [comp0808:103757:0]            sys.c:618  UCX  ERROR shmget(size=2097152 flags=0xfb0) for mm_recv_desc failed: Operation not permitted, please check shared memory limits by 'ipcs -l'
[1632406853.565021] [comp0808:103751:0]            sys.c:618  UCX  ERROR shmget(size=2097152 flags=0xfb0) for mm_recv_desc failed: Operation not permitted, please check shared memory limits by 'ipcs -l'
[1632406853.568724] [comp0808:103759:0]            sys.c:618  UCX  ERROR shmget(size=2097152 flags=0xfb0) for mm_recv_desc failed: Operation not permitted, please check shared memory limits by 'ipcs -l'
[1632406853.575388] [comp0808:103754:0]            sys.c:618  UCX  ERROR shmget(size=2097152 flags=0xfb0) for mm_recv_desc failed: Operation not permitted, please check shared memory limits by 'ipcs -l'
[1632406853.609483] [comp0808:103751:0]            sys.c:618  UCX  ERROR shmget(size=2097152 flags=0xb80) for ucp_am_bufs failed: Operation not permitted, please check shared memory limits by 'ipcs -l'
[1632406853.610091] [comp0808:103757:0]            sys.c:618  UCX  ERROR shmget(size=2097152 flags=0xb80) for ucp_am_bufs failed: Operation not permitted, please check shared memory limits by 'ipcs -l'
[1632406853.672560] [comp0808:103759:0]            sys.c:618  UCX  ERROR shmget(size=2097152 flags=0xb80) for ucp_am_bufs failed: Operation not permitted, please check shared memory limits by 'ipcs -l'
[1632406853.672518] [comp0808:103754:0]            sys.c:618  UCX  ERROR shmget(size=2097152 flags=0xb80) for ucp_am_bufs failed: Operation not permitted, please check shared memory limits by 'ipcs -l'


           ************************************************************
           *        Program running with 4 parallel MPI-processes     *
           *              working on a common directory               *
           ************************************************************
------------------------------------------------------------------------------
                           ORCA GTO INTEGRAL CALCULATION
------------------------------------------------------------------------------

                         BASIS SET STATISTICS AND STARTUP INFO

 # of primitive gaussian shells          ...  232
 # of primitive gaussian functions       ...  484
 # of contracted shells                  ...  128
 # of contracted basis functions         ...  306
 Highest angular momentum                ...    3
 Maximum contraction depth               ...    8
 Integral package used                   ... LIBINT
 Integral threshhold            Thresh   ...  1.000e-10
 Primitive cut-off              TCut     ...  1.000e-11


------------------------------ INTEGRAL EVALUATION ----------------------------


 * One electron integrals 
 Pre-screening matrix                    ... done
 Shell pair data                         ... done (   0.002 sec)

[1632406855.395172] [comp0808:103791:0]            sys.c:618  UCX  ERROR shmget(size=2097152 flags=0xfb0) for mm_recv_desc failed: Operation not permitted, please check shared memory limits by 'ipcs -l'
[1632406855.398778] [comp0808:103797:0]            sys.c:618  UCX  ERROR shmget(size=2097152 flags=0xfb0) for mm_recv_desc failed: Operation not permitted, please check shared memory limits by 'ipcs -l'
[1632406855.412576] [comp0808:103792:0]            sys.c:618  UCX  ERROR shmget(size=2097152 flags=0xfb0) for mm_recv_desc failed: Operation not permitted, please check shared memory limits by 'ipcs -l'
[1632406855.412826] [comp0808:103798:0]            sys.c:618  UCX  ERROR shmget(size=2097152 flags=0xfb0) for mm_recv_desc failed: Operation not permitted, please check shared memory limits by 'ipcs -l'
[1632406855.432393] [comp0808:103798:0]            sys.c:618  UCX  ERROR shmget(size=2097152 flags=0xb80) for ucp_am_bufs failed: Operation not permitted, please check shared memory limits by 'ipcs -l'
[1632406855.433175] [comp0808:103791:0]            sys.c:618  UCX  ERROR shmget(size=2097152 flags=0xb80) for ucp_am_bufs failed: Operation not permitted, please check shared memory limits by 'ipcs -l'
[1632406855.433174] [comp0808:103792:0]            sys.c:618  UCX  ERROR shmget(size=2097152 flags=0xb80) for ucp_am_bufs failed: Operation not permitted, please check shared memory limits by 'ipcs -l'
[1632406855.433780] [comp0808:103797:0]            sys.c:618  UCX  ERROR shmget(size=2097152 flags=0xb80) for ucp_am_bufs failed: Operation not permitted, please check shared memory limits by 'ipcs -l'


           ************************************************************
           *        Program running with 4 parallel MPI-processes     *
           *              working on a common directory               *
           ************************************************************
-------------------------------------------------------------------------------
                                 ORCA SCF
-------------------------------------------------------------------------------

------------
SCF SETTINGS
------------
Hamiltonian:
 Ab initio Hamiltonian  Method          .... Hartree-Fock(GTOs)


General Settings:
 Integral files         IntName         .... manual_reactants_345_sp
 Hartree-Fock type      HFTyp           .... RHF
 Total Charge           Charge          ....   -1
 Multiplicity           Mult            ....    1
 Number of Electrons    NEL             ....   94
 Basis Dimension        Dim             ....  306
 Nuclear Repulsion      ENuc            ....    549.8123288156 Eh

Convergence Acceleration:
 DIIS                   CNVDIIS         .... on
   Start iteration      DIISMaxIt       ....    12
   Startup error        DIISStart       ....  0.200000
   # of expansion vecs  DIISMaxEq       ....     5
   Bias factor          DIISBfac        ....   1.050
   Max. coefficient     DIISMaxC        ....  10.000
 Newton-Raphson         CNVNR           .... off
 SOSCF                  CNVSOSCF        .... on
   Start iteration      SOSCFMaxIt      ....   150
   Startup grad/error   SOSCFStart      ....  0.003300
 Level Shifting         CNVShift        .... on
   Level shift para.    LevelShift      ....    0.2500
   Turn off err/grad.   ShiftErr        ....    0.0010
 Zerner damping         CNVZerner       .... off
 Static damping         CNVDamp         .... on
   Fraction old density DampFac         ....    0.7000
   Max. Damping (<1)    DampMax         ....    0.9800
   Min. Damping (>=0)   DampMin         ....    0.0000
   Turn off err/grad.   DampErr         ....    0.1000
 Fernandez-Rico         CNVRico         .... off

SCF Procedure:
 Maximum # iterations   MaxIter         ....   250
 SCF integral mode      SCFMode         .... Direct
   Integral package                     .... LIBINT
 Reset frequency        DirectResetFreq ....    20
 Integral Threshold     Thresh          ....  1.000e-10 Eh
 Primitive CutOff       TCut            ....  1.000e-11 Eh

Convergence Tolerance:
 Convergence Check Mode ConvCheckMode   .... Total+1el-Energy
 Convergence forced     ConvForced      .... 1
 Energy Change          TolE            ....  1.000e-06 Eh
 1-El. energy change                    ....  1.000e-03 Eh
 Orbital Gradient       TolG            ....  5.000e-05
 Orbital Rotation angle TolX            ....  5.000e-05
 DIIS Error             TolErr          ....  1.000e-06


Diagonalization of the overlap matrix:
Smallest eigenvalue                        ... 1.939e-04
Time for diagonalization                   ...    0.138 sec
Threshold for overlap eigenvalues          ... 1.000e-08
Number of eigenvalues below threshold      ... 0
Time for construction of square roots      ...    0.011 sec
Total time needed                          ...    0.150 sec

-------------------
DFT GRID GENERATION
-------------------

General Integration Accuracy     IntAcc      ...  4.340
Radial Grid Type                 RadialGrid  ... Gauss-Chebyshev
Angular Grid (max. acc.)         AngularGrid ... Lebedev-110
Angular grid pruning method      GridPruning ... 3 (G Style)
Weight generation scheme         WeightScheme... Becke
Basis function cutoff            BFCut       ...    1.0000e-10
Integration weight cutoff        WCut        ...    1.0000e-14
Grids for H and He will be reduced by one unit

# of grid points (after initial pruning)     ...  21748 (   0.0 sec)
# of grid points (after weights+screening)   ...  20099 (   0.0 sec)
nearest neighbour list constructed           ...    0.0 sec
Grid point re-assignment to atoms done       ...    0.0 sec
Grid point division into batches done        ...    0.0 sec
Reduced shell lists constructed in    0.1 sec

Total number of grid points                  ...    20099
Total number of batches                      ...      325
Average number of points per batch           ...       61
Average number of grid points per atom       ...     1117
Average number of shells per batch           ...    93.13 (72.76%)
Average number of basis functions per batch  ...   228.92 (74.81%)
Average number of large shells per batch     ...    75.46 (81.02%)
Average number of large basis fcns per batch ...   185.41 (80.99%)
Maximum spatial batch extension              ...  14.27, 18.48, 19.62 au
Average spatial batch extension              ...   0.58,  0.59,  0.60 au

Time for grid setup =    1.917 sec

------------------------------
INITIAL GUESS: MODEL POTENTIAL
------------------------------
Loading Hartree-Fock densities                     ... done
Calculating cut-offs                               ... done
Setting up the integral package                    ... done
Initializing the effective Hamiltonian             ... done
Starting the Coulomb interaction                   ... done (   0.1 sec)
Reading the grid                                   ... done
Mapping shells                                     ... done
Starting the XC term evaluation                    ... done (   1.3 sec)
Transforming the Hamiltonian                       ... done (   0.0 sec)
Diagonalizing the Hamiltonian                      ... done (   0.0 sec)
Back transforming the eigenvectors                 ... done (   0.0 sec)
Now organizing SCF variables                       ... done
                      ------------------
                      INITIAL GUESS DONE (   3.4 sec)
                      ------------------

--------------------
CPCM SOLVATION MODEL
--------------------
CPCM parameters:
  Epsilon                                         ...      38.3000
  Refrac                                          ...       1.4300
  Rsolv                                           ...       1.3000
  Surface type                                    ... GAUSSIAN VDW
  Epsilon function type                           ...         CPCM
Radii:
 Radius for C  used is    3.8550 Bohr (=   2.0400 Ang.)
 Radius for Br used is    4.1952 Bohr (=   2.2200 Ang.)
 Radius for H  used is    2.4944 Bohr (=   1.3200 Ang.)
 Radius for Cl used is    3.9684 Bohr (=   2.1000 Ang.)
Calculating surface                               ...        done! (  0.0s)
GEPOL surface points                              ...         1039
GEPOL Volume                                      ...    1268.3936
GEPOL Surface-area                                ...     745.4841
Calculating surface distance matrix               ...        done! (  0.0s)
Performing Cholesky decomposition & store         ...        done! (  5.8s)
Overall time for CPCM initialization              ...                 5.9s
--------------
SCF ITERATIONS
--------------
ITER       Energy         Delta-E        Max-DP      RMS-DP      [F,P]     Damp
               ***  Starting incremental Fock matrix formation  ***
  0  -3227.4846768651   0.000000000000 0.08656633  0.00098268  0.2312525 0.7000
  1  -3227.6337686044  -0.149091739338 0.06469605  0.00082503  0.1683205 0.7000
                               ***Turning on DIIS***
  2  -3227.7243889020  -0.090620297594 0.04078393  0.00058429  0.1219493 0.7000
  3  -3228.6330960255  -0.908707123452 0.09363575  0.00139219  0.0896664 0.0000
  4  -3227.8590394505   0.774056575023 0.01525376  0.00022413  0.0073298 0.0000
  5  -3227.9027294318  -0.043689981316 0.00557579  0.00011173  0.0034290 0.0000
                      *** Initiating the SOSCF procedure ***
                           *** Shutting down DIIS ***
                      *** Re-Reading the Fockian *** 
                      *** Removing any level shift *** 
ITER      Energy       Delta-E        Grad      Rot      Max-DP    RMS-DP
  6  -3227.90890874  -0.0061793080  0.000961  0.000961  0.002910  0.000058
               *** Restarting incremental Fock matrix formation ***
  7  -3227.91113707  -0.0022283342  0.000378  0.000628  0.001525  0.000026
  8  -3227.91114309  -0.0000060209  0.000201  0.000670  0.001036  0.000020
  9  -3227.91114500  -0.0000019088  0.000097  0.000032  0.000171  0.000003
 10  -3227.91114507  -0.0000000653  0.000033  0.000019  0.000098  0.000001
                 **** Energy Check signals convergence ****
              ***Rediagonalizing the Fockian in SOSCF/NRSCF***

               *****************************************************
               *                     SUCCESS                       *
               *           SCF CONVERGED AFTER  11 CYCLES          *
               *****************************************************


----------------
TOTAL SCF ENERGY
----------------

Total Energy       :        -3227.91114508 Eh          -87835.92775 eV

Components:
Nuclear Repulsion  :          549.81232882 Eh           14961.15408 eV
Electronic Energy  :        -3777.72347390 Eh         -102797.08183 eV
One Electron Energy:        -5590.17378394 Eh         -152116.36211 eV
Two Electron Energy:         1812.45031004 Eh           49319.28028 eV
CPCM Dielectric    :           -0.11290892 Eh              -3.07241 eV

Virial components:
Potential Energy   :        -6455.46686598 Eh         -175662.18392 eV
Kinetic Energy     :         3227.55572090 Eh           87826.25617 eV
Virial Ratio       :            2.00011012

CPCM Solvation Model Properties:
Surface-charge          :            0.96499987
Charge-correction       :           -0.00472591 Eh              -0.12860 eV
Free-energy (cav+disp)  :            0.00435534 Eh               0.11851 eV
Corrected G(solv)       :        -3227.91151566 Eh          -87835.93783 eV

---------------
SCF CONVERGENCE
---------------

  Last Energy change         ...   -1.6053e-08  Tolerance :   1.0000e-06
  Last MAX-Density change    ...    3.7108e-05  Tolerance :   1.0000e-05
  Last RMS-Density change    ...    4.5826e-07  Tolerance :   1.0000e-06
  Last Orbital Gradient      ...    8.1278e-06  Tolerance :   5.0000e-05
  Last Orbital Rotation      ...    7.2133e-06  Tolerance :   5.0000e-05

             **** THE GBW FILE WAS UPDATED (manual_reactants_345_sp.gbw) ****
             **** DENSITY FILE WAS UPDATED (manual_reactants_345_sp.scfp) ****
             **** ENERGY FILE WAS UPDATED (manual_reactants_345_sp.en.tmp) ****
             **** THE GBW FILE WAS UPDATED (manual_reactants_345_sp.gbw) ****
             **** DENSITY FILE WAS UPDATED (manual_reactants_345_sp.scfp) ****
----------------
ORBITAL ENERGIES
----------------

  NO   OCC          E(Eh)            E(eV) 
   0   2.0000    -490.003070    -13333.6614 
   1   2.0000    -104.707233     -2849.2287 
   2   2.0000     -65.145586     -1772.7015 
   3   2.0000     -58.500711     -1591.8853 
   4   2.0000     -58.499523     -1591.8529 
   5   2.0000     -58.499515     -1591.8527 
   6   2.0000     -11.278297      -306.8981 
   7   2.0000     -11.236365      -305.7570 
   8   2.0000     -11.206618      -304.9476 
   9   2.0000     -11.206288      -304.9386 
  10   2.0000     -11.204185      -304.8814 
  11   2.0000     -10.434485      -283.9368 
  12   2.0000      -9.818929      -267.1866 
  13   2.0000      -7.901054      -214.9986 
  14   2.0000      -7.901054      -214.9986 
  15   2.0000      -7.901032      -214.9980 
  16   2.0000      -7.430450      -202.1928 
  17   2.0000      -7.424750      -202.0377 
  18   2.0000      -7.424686      -202.0360 
  19   2.0000      -3.172814       -86.3367 
  20   2.0000      -3.169878       -86.2568 
  21   2.0000      -3.169834       -86.2556 
  22   2.0000      -3.162558       -86.0576 
  23   2.0000      -3.162552       -86.0574 
  24   2.0000      -1.120139       -30.4805 
  25   2.0000      -1.022107       -27.8129 
  26   2.0000      -0.947824       -25.7916 
  27   2.0000      -0.925195       -25.1758 
  28   2.0000      -0.924257       -25.1503 
  29   2.0000      -0.882676       -24.0188 
  30   2.0000      -0.730122       -19.8676 
  31   2.0000      -0.627954       -17.0875 
  32   2.0000      -0.619751       -16.8643 
  33   2.0000      -0.594585       -16.1795 
  34   2.0000      -0.562627       -15.3099 
  35   2.0000      -0.537786       -14.6339 
  36   2.0000      -0.517339       -14.0775 
  37   2.0000      -0.503303       -13.6956 
  38   2.0000      -0.492992       -13.4150 
  39   2.0000      -0.474384       -12.9086 
  40   2.0000      -0.458625       -12.4798 
  41   2.0000      -0.444923       -12.1070 
  42   2.0000      -0.397174       -10.8077 
  43   2.0000      -0.396890       -10.7999 
  44   2.0000      -0.366666        -9.9775 
  45   2.0000      -0.366574        -9.9750 
  46   2.0000      -0.363624        -9.8947 
  47   0.0000       0.135677         3.6920 
  48   0.0000       0.157313         4.2807 
  49   0.0000       0.194137         5.2827 
  50   0.0000       0.198559         5.4031 
  51   0.0000       0.200951         5.4682 
  52   0.0000       0.209239         5.6937 
  53   0.0000       0.212073         5.7708 
  54   0.0000       0.226512         6.1637 
  55   0.0000       0.257543         7.0081 
  56   0.0000       0.259511         7.0616 
  57   0.0000       0.277447         7.5497 
  58   0.0000       0.281187         7.6515 
  59   0.0000       0.282703         7.6927 
  60   0.0000       0.285384         7.7657 
  61   0.0000       0.300734         8.1834 
  62   0.0000       0.311201         8.4682 
  63   0.0000       0.326348         8.8804 
  64   0.0000       0.341014         9.2795 
  65   0.0000       0.348387         9.4801 
  66   0.0000       0.371826        10.1179 
  67   0.0000       0.394499        10.7349 
  68   0.0000       0.394525        10.7356 
  69   0.0000       0.397175        10.8077 
  70   0.0000       0.437582        11.9072 
  71   0.0000       0.468396        12.7457 
  72   0.0000       0.474557        12.9133 
  73   0.0000       0.482395        13.1266 
  74   0.0000       0.485684        13.2161 
  75   0.0000       0.486827        13.2472 
  76   0.0000       0.495841        13.4925 
  77   0.0000       0.519480        14.1358 
  78   0.0000       0.534919        14.5559 
  79   0.0000       0.559608        15.2277 
  80   0.0000       0.567687        15.4476 
  81   0.0000       0.569564        15.4986 
  82   0.0000       0.581719        15.8294 
  83   0.0000       0.592157        16.1134 
  84   0.0000       0.593453        16.1487 
  85   0.0000       0.604963        16.4619 
  86   0.0000       0.609082        16.5740 
  87   0.0000       0.616958        16.7883 
  88   0.0000       0.625355        17.0168 
  89   0.0000       0.628054        17.0902 
  90   0.0000       0.639071        17.3900 
  91   0.0000       0.651842        17.7375 
  92   0.0000       0.656609        17.8672 
  93   0.0000       0.676649        18.4126 
  94   0.0000       0.681263        18.5381 
  95   0.0000       0.712229        19.3807 
  96   0.0000       0.715822        19.4785 
  97   0.0000       0.720927        19.6174 
  98   0.0000       0.728354        19.8195 
  99   0.0000       0.729386        19.8476 
 100   0.0000       0.738338        20.0912 
 101   0.0000       0.743451        20.2303 
 102   0.0000       0.749141        20.3852 
 103   0.0000       0.764660        20.8075 
 104   0.0000       0.778967        21.1968 
 105   0.0000       0.791738        21.5443 
 106   0.0000       0.850112        23.1327 
 107   0.0000       0.899122        24.4663 
 108   0.0000       0.909780        24.7564 
 109   0.0000       0.924431        25.1551 
 110   0.0000       0.939420        25.5629 
 111   0.0000       0.962956        26.2034 
 112   0.0000       1.024804        27.8863 
 113   0.0000       1.027526        27.9604 
 114   0.0000       1.040293        28.3078 
 115   0.0000       1.060428        28.8557 
 116   0.0000       1.080285        29.3961 
 117   0.0000       1.109739        30.1975 
 118   0.0000       1.120391        30.4874 
 119   0.0000       1.153204        31.3803 
 120   0.0000       1.180842        32.1323 
 121   0.0000       1.200303        32.6619 
 122   0.0000       1.203374        32.7455 
 123   0.0000       1.223133        33.2831 
 124   0.0000       1.282513        34.8989 
 125   0.0000       1.294643        35.2290 
 126   0.0000       1.314048        35.7571 
 127   0.0000       1.346504        36.6402 
 128   0.0000       1.358220        36.9590 
 129   0.0000       1.371935        37.3323 
 130   0.0000       1.373530        37.3756 
 131   0.0000       1.405167        38.2365 
 132   0.0000       1.522960        41.4418 
 133   0.0000       1.526232        41.5309 
 134   0.0000       1.543282        41.9948 
 135   0.0000       1.552278        42.2396 
 136   0.0000       1.611192        43.8428 
 137   0.0000       1.638256        44.5792 
 138   0.0000       1.651567        44.9414 
 139   0.0000       1.654256        45.0146 
 140   0.0000       1.672624        45.5144 
 141   0.0000       1.681209        45.7480 
 142   0.0000       1.701021        46.2871 
 143   0.0000       1.796934        48.8971 
 144   0.0000       1.808127        49.2016 
 145   0.0000       1.816993        49.4429 
 146   0.0000       1.817823        49.4655 
 147   0.0000       1.830432        49.8086 
 148   0.0000       1.832686        49.8699 
 149   0.0000       1.846292        50.2402 
 150   0.0000       1.848677        50.3051 
 151   0.0000       1.868664        50.8489 
 152   0.0000       1.878959        51.1291 
 153   0.0000       1.889576        51.4180 
 154   0.0000       1.895272        51.5730 
 155   0.0000       1.916207        52.1426 
 156   0.0000       1.920675        52.2642 
 157   0.0000       1.933418        52.6110 
 158   0.0000       1.936882        52.7052 
 159   0.0000       1.946233        52.9597 
 160   0.0000       1.951820        53.1117 
 161   0.0000       1.969626        53.5963 
 162   0.0000       1.983449        53.9724 
 163   0.0000       1.991055        54.1794 
 164   0.0000       2.026814        55.1524 
 165   0.0000       2.076777        56.5120 
 166   0.0000       2.087460        56.8027 
 167   0.0000       2.093191        56.9586 
 168   0.0000       2.139679        58.2236 
 169   0.0000       2.178226        59.2725 
 170   0.0000       2.183228        59.4087 
 171   0.0000       2.191804        59.6420 
 172   0.0000       2.194181        59.7067 
 173   0.0000       2.201971        59.9187 
 174   0.0000       2.207266        60.0628 
 175   0.0000       2.211654        60.1822 
 176   0.0000       2.213283        60.2265 
 177   0.0000       2.256478        61.4019 
 178   0.0000       2.312575        62.9284 
 179   0.0000       2.322759        63.2055 
 180   0.0000       2.329626        63.3924 
 181   0.0000       2.331276        63.4372 
 182   0.0000       2.404481        65.4293 
 183   0.0000       2.472103        67.2693 
 184   0.0000       2.486541        67.6622 
 185   0.0000       2.489703        67.7483 
 186   0.0000       2.510973        68.3270 
 187   0.0000       2.511014        68.3282 
 188   0.0000       2.512802        68.3768 
 189   0.0000       2.512833        68.3777 
 190   0.0000       2.515025        68.4373 
 191   0.0000       2.515147        68.4406 
 192   0.0000       2.551815        69.4384 
 193   0.0000       2.568422        69.8903 
 194   0.0000       2.570446        69.9454 
 195   0.0000       2.603835        70.8540 
 196   0.0000       2.604973        70.8849 
 197   0.0000       2.625306        71.4382 
 198   0.0000       2.637354        71.7661 
 199   0.0000       2.641600        71.8816 
 200   0.0000       2.644439        71.9588 
 201   0.0000       2.683335        73.0172 
 202   0.0000       2.689848        73.1945 
 203   0.0000       2.692179        73.2579 
 204   0.0000       2.697336        73.3982 
 205   0.0000       2.707765        73.6820 
 206   0.0000       2.718369        73.9706 
 207   0.0000       2.764273        75.2197 
 208   0.0000       2.773233        75.4635 
 209   0.0000       2.783664        75.7474 
 210   0.0000       2.822618        76.8073 
 211   0.0000       2.826847        76.9224 
 212   0.0000       2.838954        77.2519 
 213   0.0000       2.846782        77.4649 
 214   0.0000       2.855578        77.7042 
 215   0.0000       2.865296        77.9687 
 216   0.0000       2.903854        79.0179 
 217   0.0000       2.928587        79.6909 
 218   0.0000       2.939965        80.0005 
 219   0.0000       2.949468        80.2591 
 220   0.0000       2.951247        80.3075 
 221   0.0000       2.978670        81.0537 
 222   0.0000       3.046977        82.9125 
 223   0.0000       3.067367        83.4673 
 224   0.0000       3.078820        83.7790 
 225   0.0000       3.127203        85.0955 
 226   0.0000       3.138133        85.3929 
 227   0.0000       3.142497        85.5117 
 228   0.0000       3.179234        86.5114 
 229   0.0000       3.182820        86.6089 
 230   0.0000       3.270019        88.9818 
 231   0.0000       3.320983        90.3686 
 232   0.0000       3.364158        91.5434 
 233   0.0000       3.402147        92.5771 
 234   0.0000       3.412658        92.8632 
 235   0.0000       3.503227        95.3276 
 236   0.0000       3.506623        95.4201 
 237   0.0000       3.543777        96.4311 
 238   0.0000       3.550846        96.6234 
 239   0.0000       3.557921        96.8160 
 240   0.0000       3.579931        97.4149 
 241   0.0000       3.610391        98.2437 
 242   0.0000       3.633825        98.8814 
 243   0.0000       3.644607        99.1748 
 244   0.0000       3.651995        99.3758 
 245   0.0000       3.674534        99.9891 
 246   0.0000       3.686722       100.3208 
 247   0.0000       3.699632       100.6721 
 248   0.0000       3.707714       100.8920 
 249   0.0000       3.713127       101.0393 
 250   0.0000       3.717928       101.1700 
 251   0.0000       3.735881       101.6585 
 252   0.0000       3.743933       101.8776 
 253   0.0000       3.757638       102.2505 
 254   0.0000       3.775971       102.7494 
 255   0.0000       3.790940       103.1567 
 256   0.0000       3.989813       108.5683 
 257   0.0000       3.997546       108.7787 
 258   0.0000       4.016448       109.2931 
 259   0.0000       4.026782       109.5743 
 260   0.0000       4.064192       110.5923 
 261   0.0000       4.072650       110.8224 
 262   0.0000       4.086411       111.1969 
 263   0.0000       4.139224       112.6340 
 264   0.0000       4.166797       113.3843 
 265   0.0000       4.355456       118.5180 
 266   0.0000       4.371103       118.9437 
 267   0.0000       4.413071       120.0858 
 268   0.0000       4.436427       120.7213 
 269   0.0000       4.449485       121.0767 
 270   0.0000       4.461887       121.4141 
 271   0.0000       4.478231       121.8589 
 272   0.0000       4.505424       122.5988 
 273   0.0000       4.529106       123.2432 
 274   0.0000       4.536966       123.4571 
 275   0.0000       4.541220       123.5729 
 276   0.0000       4.571711       124.4026 
 277   0.0000       4.603748       125.2744 
 278   0.0000       4.633689       126.0891 
 279   0.0000       4.713325       128.2561 
 280   0.0000       4.755531       129.4046 
 281   0.0000       4.757706       129.4638 
 282   0.0000       4.766650       129.7071 
 283   0.0000       4.797536       130.5476 
 284   0.0000       4.809316       130.8681 
 285   0.0000       4.843775       131.8058 
 286   0.0000       4.857553       132.1807 
 287   0.0000       4.864212       132.3619 
 288   0.0000       5.041795       137.1942 
 289   0.0000       5.100641       138.7955 
 290   0.0000       5.131579       139.6374 
 291   0.0000       5.157421       140.3406 
 292   0.0000       5.284632       143.8021 
 293   0.0000       5.303484       144.3151 
 294   0.0000       5.317119       144.6862 
 295   0.0000       5.351247       145.6148 
 296   0.0000       8.240292       224.2297 
 297   0.0000      11.576034       314.9999 
 298   0.0000      11.577664       315.0442 
 299   0.0000      11.611402       315.9623 
 300   0.0000      23.414473       637.1402 
 301   0.0000      23.497158       639.3902 
 302   0.0000      23.525151       640.1519 
 303   0.0000      23.540783       640.5773 
 304   0.0000      23.783998       647.1955 
 305   0.0000      24.836807       675.8439 

                    ********************************
                    * MULLIKEN POPULATION ANALYSIS *
                    ********************************

-----------------------
MULLIKEN ATOMIC CHARGES
-----------------------
   0 C :   -0.404760
   1 C :    0.257500
   2 C :   -0.411995
   3 C :   -0.414099
   4 C :   -0.147621
   5 Br:   -0.273457
   6 H :    0.107716
   7 H :    0.111373
   8 H :    0.107887
   9 H :    0.125362
  10 H :    0.120954
  11 H :    0.118121
  12 H :    0.124525
  13 H :    0.118448
  14 H :    0.121321
  15 H :    0.159202
  16 H :    0.160484
  17 Cl:   -0.980963
Sum of atomic charges:   -1.0000000

--------------------------------
MULLIKEN REDUCED ORBITAL CHARGES
--------------------------------
  0 C s       :     3.236279  s :     3.236279
      pz      :     0.984456  p :     3.086712
      px      :     1.029508
      py      :     1.072748
      dz2     :     0.022001  d :     0.077209
      dxz     :     0.021941
      dyz     :     0.005417
      dx2y2   :     0.005299
      dxy     :     0.022552
      f0      :     0.000549  f :     0.004561
      f+1     :     0.001721
      f-1     :     0.000384
      f+2     :     0.000468
      f-2     :     0.000395
      f+3     :     0.000941
      f-3     :     0.000102
  1 C s       :     2.853282  s :     2.853282
      pz      :     0.896869  p :     2.686027
      px      :     0.896029
      py      :     0.893129
      dz2     :     0.043255  d :     0.192116
      dxz     :     0.045275
      dyz     :     0.022976
      dx2y2   :     0.030153
      dxy     :     0.050457
      f0      :     0.001833  f :     0.011075
      f+1     :     0.002036
      f-1     :     0.001057
      f+2     :     0.000800
      f-2     :     0.001883
      f+3     :     0.001652
      f-3     :     0.001813
  2 C s       :     3.258041  s :     3.258041
      pz      :     0.986288  p :     3.072215
      px      :     1.020769
      py      :     1.065158
      dz2     :     0.022933  d :     0.077110
      dxz     :     0.019351
      dyz     :     0.005072
      dx2y2   :     0.005414
      dxy     :     0.024341
      f0      :     0.000521  f :     0.004629
      f+1     :     0.001732
      f-1     :     0.000362
      f+2     :     0.000445
      f-2     :     0.000434
      f+3     :     0.001001
      f-3     :     0.000134
  3 C s       :     3.259982  s :     3.259982
      pz      :     1.064392  p :     3.072357
      px      :     1.023453
      py      :     0.984511
      dz2     :     0.013280  d :     0.077131
      dxz     :     0.024457
      dyz     :     0.005945
      dx2y2   :     0.013148
      dxy     :     0.020301
      f0      :     0.000303  f :     0.004629
      f+1     :     0.001531
      f-1     :     0.000297
      f+2     :     0.000221
      f-2     :     0.000426
      f+3     :     0.001162
      f-3     :     0.000689
  4 C s       :     3.191993  s :     3.191993
      pz      :     0.850370  p :     2.828244
      px      :     0.947181
      py      :     1.030694
      dz2     :     0.022958  d :     0.121176
      dxz     :     0.037092
      dyz     :     0.014548
      dx2y2   :     0.020804
      dxy     :     0.025774
      f0      :     0.000631  f :     0.006207
      f+1     :     0.001571
      f-1     :     0.000477
      f+2     :     0.000705
      f-2     :     0.000820
      f+3     :     0.001198
      f-3     :     0.000805
  5 Brs       :     7.920251  s :     7.920251
      pz      :     5.572723  p :    17.299042
      px      :     5.756894
      py      :     5.969425
      dz2     :     2.011075  d :    10.047978
      dxz     :     2.020859
      dyz     :     2.006269
      dx2y2   :     2.004722
      dxy     :     2.005053
      f0      :     0.000947  f :     0.006186
      f+1     :     0.002097
      f-1     :     0.000475
      f+2     :     0.001164
      f-2     :     0.001036
      f+3     :     0.000166
      f-3     :     0.000301
  6 H s       :     0.870584  s :     0.870584
      pz      :     0.011486  p :     0.021700
      px      :     0.006524
      py      :     0.003690
  7 H s       :     0.866512  s :     0.866512
      pz      :     0.003675  p :     0.022115
      px      :     0.007985
      py      :     0.010455
  8 H s       :     0.870437  s :     0.870437
      pz      :     0.003687  p :     0.021676
      px      :     0.007693
      py      :     0.010296
  9 H s       :     0.852751  s :     0.852751
      pz      :     0.011685  p :     0.021887
      px      :     0.006616
      py      :     0.003586
 10 H s       :     0.857559  s :     0.857559
      pz      :     0.003596  p :     0.021487
      px      :     0.007826
      py      :     0.010065
 11 H s       :     0.860517  s :     0.860517
      pz      :     0.003550  p :     0.021361
      px      :     0.007136
      py      :     0.010675
 12 H s       :     0.853696  s :     0.853696
      pz      :     0.010675  p :     0.021779
      px      :     0.007436
      py      :     0.003667
 13 H s       :     0.860185  s :     0.860185
      pz      :     0.010293  p :     0.021367
      px      :     0.007437
      py      :     0.003637
 14 H s       :     0.857195  s :     0.857195
      pz      :     0.003579  p :     0.021483
      px      :     0.006847
      py      :     0.011057
 15 H s       :     0.818200  s :     0.818200
      pz      :     0.010903  p :     0.022598
      px      :     0.008022
      py      :     0.003673
 16 H s       :     0.816914  s :     0.816914
      pz      :     0.003265  p :     0.022602
      px      :     0.007237
      py      :     0.012100
 17 Cls       :     5.991909  s :     5.991909
      pz      :     3.995590  p :    11.988859
      px      :     3.996609
      py      :     3.996660
      dz2     :     0.000059  d :     0.000188
      dxz     :     0.000080
      dyz     :     0.000022
      dx2y2   :     0.000019
      dxy     :     0.000009
      f0      :     0.000001  f :     0.000006
      f+1     :     0.000003
      f-1     :     0.000000
      f+2     :     0.000001
      f-2     :     0.000001
      f+3     :     0.000000
      f-3     :     0.000000


                     *******************************
                     * LOEWDIN POPULATION ANALYSIS *
                     *******************************

----------------------
LOEWDIN ATOMIC CHARGES
----------------------
   0 C :   -0.260438
   1 C :   -0.392776
   2 C :   -0.251780
   3 C :   -0.249858
   4 C :   -0.366753
   5 Br:    0.155015
   6 H :    0.115364
   7 H :    0.115393
   8 H :    0.115177
   9 H :    0.113471
  10 H :    0.120158
  11 H :    0.119422
  12 H :    0.113666
  13 H :    0.119273
  14 H :    0.120913
  15 H :    0.134524
  16 H :    0.134882
  17 Cl:   -0.955655

-------------------------------
LOEWDIN REDUCED ORBITAL CHARGES
-------------------------------
  0 C s       :     2.823325  s :     2.823325
      pz      :     1.026678  p :     3.126429
      px      :     1.042166
      py      :     1.057585
      dz2     :     0.086047  d :     0.285998
      dxz     :     0.074964
      dyz     :     0.025689
      dx2y2   :     0.014740
      dxy     :     0.084558
      f0      :     0.003773  f :     0.024687
      f+1     :     0.004986
      f-1     :     0.004555
      f+2     :     0.004210
      f-2     :     0.002705
      f+3     :     0.003511
      f-3     :     0.000947
  1 C s       :     2.693131  s :     2.693131
      pz      :     0.998711  p :     2.965494
      px      :     0.987142
      py      :     0.979641
      dz2     :     0.146615  d :     0.663895
      dxz     :     0.152029
      dyz     :     0.091068
      dx2y2   :     0.110219
      dxy     :     0.163965
      f0      :     0.012683  f :     0.070256
      f+1     :     0.008041
      f-1     :     0.008763
      f+2     :     0.007428
      f-2     :     0.012712
      f+3     :     0.008196
      f-3     :     0.012434
  2 C s       :     2.823479  s :     2.823479
      pz      :     1.026894  p :     3.121007
      px      :     1.040528
      py      :     1.053585
      dz2     :     0.089522  d :     0.282383
      dxz     :     0.068269
      dyz     :     0.022235
      dx2y2   :     0.016047
      dxy     :     0.086311
      f0      :     0.003556  f :     0.024911
      f+1     :     0.005232
      f-1     :     0.004250
      f+2     :     0.004259
      f-2     :     0.002949
      f+3     :     0.003650
      f-3     :     0.001015
  3 C s       :     2.823501  s :     2.823501
      pz      :     1.053767  p :     3.119541
      px      :     1.039867
      py      :     1.025907
      dz2     :     0.042104  d :     0.281958
      dxz     :     0.086631
      dyz     :     0.026260
      dx2y2   :     0.054822
      dxy     :     0.072140
      f0      :     0.002238  f :     0.024857
      f+1     :     0.003892
      f-1     :     0.002903
      f+2     :     0.003233
      f-2     :     0.002823
      f+3     :     0.004693
      f-3     :     0.005074
  4 C s       :     2.862030  s :     2.862030
      pz      :     0.959965  p :     3.048243
      px      :     1.020626
      py      :     1.067652
      dz2     :     0.077934  d :     0.423469
      dxz     :     0.128304
      dyz     :     0.053164
      dx2y2   :     0.071298
      dxy     :     0.092770
      f0      :     0.003924  f :     0.033010
      f+1     :     0.005363
      f-1     :     0.003945
      f+2     :     0.004865
      f-2     :     0.004578
      f+3     :     0.004756
      f-3     :     0.005579
  5 Brs       :     7.606048  s :     7.606048
      pz      :     5.532488  p :    17.112213
      px      :     5.692199
      py      :     5.887526
      dz2     :     2.031266  d :    10.114392
      dxz     :     2.042261
      dyz     :     2.017105
      dx2y2   :     2.011669
      dxy     :     2.012091
      f0      :     0.002251  f :     0.012332
      f+1     :     0.003742
      f-1     :     0.001076
      f+2     :     0.002262
      f-2     :     0.002081
      f+3     :     0.000379
      f-3     :     0.000539
  6 H s       :     0.825364  s :     0.825364
      pz      :     0.027787  p :     0.059273
      px      :     0.019150
      py      :     0.012337
  7 H s       :     0.824911  s :     0.824911
      pz      :     0.011421  p :     0.059696
      px      :     0.020735
      py      :     0.027540
  8 H s       :     0.825575  s :     0.825575
      pz      :     0.011511  p :     0.059248
      px      :     0.020324
      py      :     0.027414
  9 H s       :     0.826395  s :     0.826395
      pz      :     0.028623  p :     0.060133
      px      :     0.019439
      py      :     0.012071
 10 H s       :     0.820868  s :     0.820868
      pz      :     0.011648  p :     0.058974
      px      :     0.020599
      py      :     0.026727
 11 H s       :     0.821685  s :     0.821685
      pz      :     0.011544  p :     0.058893
      px      :     0.019135
      py      :     0.028214
 12 H s       :     0.826417  s :     0.826417
      pz      :     0.028212  p :     0.059916
      px      :     0.019837
      py      :     0.011867
 13 H s       :     0.821839  s :     0.821839
      pz      :     0.027441  p :     0.058888
      px      :     0.019875
      py      :     0.011571
 14 H s       :     0.820168  s :     0.820168
      pz      :     0.012008  p :     0.058918
      px      :     0.020039
      py      :     0.026871
 15 H s       :     0.803510  s :     0.803510
      pz      :     0.028729  p :     0.061966
      px      :     0.021263
      py      :     0.011974
 16 H s       :     0.803151  s :     0.803151
      pz      :     0.010388  p :     0.061967
      px      :     0.021014
      py      :     0.030565
 17 Cls       :     5.988673  s :     5.988673
      pz      :     3.981285  p :    11.966514
      px      :     3.988628
      py      :     3.996602
      dz2     :     0.000125  d :     0.000454
      dxz     :     0.000214
      dyz     :     0.000050
      dx2y2   :     0.000044
      dxy     :     0.000021
      f0      :     0.000002  f :     0.000013
      f+1     :     0.000006
      f-1     :     0.000001
      f+2     :     0.000003
      f-2     :     0.000002
      f+3     :     0.000000
      f-3     :     0.000000


                      *****************************
                      * MAYER POPULATION ANALYSIS *
                      *****************************

  NA   - Mulliken gross atomic population
  ZA   - Total nuclear charge
  QA   - Mulliken gross atomic charge
  VA   - Mayer's total valence
  BVA  - Mayer's bonded valence
  FA   - Mayer's free valence

  ATOM       NA         ZA         QA         VA         BVA        FA
  0 C      6.4048     6.0000    -0.4048     3.8606     3.8606     0.0000
  1 C      5.7425     6.0000     0.2575     3.7663     3.7663    -0.0000
  2 C      6.4120     6.0000    -0.4120     3.8980     3.8980    -0.0000
  3 C      6.4141     6.0000    -0.4141     3.9033     3.9033     0.0000
  4 C      6.1476     6.0000    -0.1476     3.8418     3.8418    -0.0000
  5 Br    35.2735    35.0000    -0.2735     0.9503     0.9503     0.0000
  6 H      0.8923     1.0000     0.1077     0.9937     0.9937     0.0000
  7 H      0.8886     1.0000     0.1114     1.0028     1.0028     0.0000
  8 H      0.8921     1.0000     0.1079     0.9929     0.9929    -0.0000
  9 H      0.8746     1.0000     0.1254     0.9724     0.9724    -0.0000
 10 H      0.8790     1.0000     0.1210     0.9733     0.9733    -0.0000
 11 H      0.8819     1.0000     0.1181     0.9734     0.9734    -0.0000
 12 H      0.8755     1.0000     0.1245     0.9730     0.9730    -0.0000
 13 H      0.8816     1.0000     0.1184     0.9728     0.9728     0.0000
 14 H      0.8787     1.0000     0.1213     0.9733     0.9733    -0.0000
 15 H      0.8408     1.0000     0.1592     0.9684     0.9684    -0.0000
 16 H      0.8395     1.0000     0.1605     0.9668     0.9668    -0.0000
 17 Cl    17.9810    17.0000    -0.9810     0.0326     0.0326    -0.0000

  Mayer bond orders larger than 0.100000
B(  0-C ,  1-C ) :   0.9499 B(  0-C ,  6-H ) :   0.9836 B(  0-C ,  7-H ) :   0.9852 
B(  0-C ,  8-H ) :   0.9831 B(  1-C ,  2-C ) :   0.9495 B(  1-C ,  3-C ) :   0.9505 
B(  1-C ,  4-C ) :   0.9593 B(  2-C ,  9-H ) :   0.9809 B(  2-C , 10-H ) :   0.9852 
B(  2-C , 11-H ) :   0.9842 B(  3-C , 12-H ) :   0.9803 B(  3-C , 13-H ) :   0.9839 
B(  3-C , 14-H ) :   0.9865 B(  4-C ,  5-Br) :   0.9136 B(  4-C , 15-H ) :   0.9711 
B(  4-C , 16-H ) :   0.9711 


------------------
HIRSHFELD ANALYSIS
------------------

Total integrated alpha density =     47.005104965
Total integrated beta density  =     47.005104965

  ATOM     CHARGE      SPIN    
   0 C   -0.063967    0.000000
   1 C    0.035956    0.000000
   2 C   -0.062513    0.000000
   3 C   -0.061405    0.000000
   4 C    0.036611    0.000000
   5 Br  -0.175249    0.000000
   6 H    0.011769    0.000000
   7 H    0.009788    0.000000
   8 H    0.012025    0.000000
   9 H    0.009074    0.000000
  10 H    0.021090    0.000000
  11 H    0.019588    0.000000
  12 H    0.010135    0.000000
  13 H    0.019820    0.000000
  14 H    0.021150    0.000000
  15 H    0.044288    0.000000
  16 H    0.044071    0.000000
  17 Cl  -0.942443    0.000000

  TOTAL  -1.010210    0.000000

-------
TIMINGS
-------

Total SCF time: 0 days 0 hours 1 min 23 sec 

Total time                  ....      83.177 sec
Sum of individual times     ....      76.866 sec  ( 92.4%)

Fock matrix formation       ....      73.089 sec  ( 87.9%)
Diagonalization             ....       0.121 sec  (  0.1%)
Density matrix formation    ....       0.014 sec  (  0.0%)
Population analysis         ....       0.111 sec  (  0.1%)
Initial guess               ....       1.523 sec  (  1.8%)
Orbital Transformation      ....       0.000 sec  (  0.0%)
Orbital Orthonormalization  ....       0.000 sec  (  0.0%)
DIIS solution               ....       0.049 sec  (  0.1%)
SOSCF solution              ....       0.042 sec  (  0.1%)
[1632406943.231079] [comp0808:103901:0]            sys.c:618  UCX  ERROR shmget(size=2097152 flags=0xfb0) for mm_recv_desc failed: Operation not permitted, please check shared memory limits by 'ipcs -l'
[1632406943.234376] [comp0808:103899:0]            sys.c:618  UCX  ERROR shmget(size=2097152 flags=0xfb0) for mm_recv_desc failed: Operation not permitted, please check shared memory limits by 'ipcs -l'
[1632406943.235078] [comp0808:103902:0]            sys.c:618  UCX  ERROR shmget(size=2097152 flags=0xfb0) for mm_recv_desc failed: Operation not permitted, please check shared memory limits by 'ipcs -l'
[1632406943.238967] [comp0808:103900:0]            sys.c:618  UCX  ERROR shmget(size=2097152 flags=0xfb0) for mm_recv_desc failed: Operation not permitted, please check shared memory limits by 'ipcs -l'
[1632406943.262394] [comp0808:103901:0]            sys.c:618  UCX  ERROR shmget(size=2097152 flags=0xb80) for ucp_am_bufs failed: Operation not permitted, please check shared memory limits by 'ipcs -l'
[1632406943.262394] [comp0808:103899:0]            sys.c:618  UCX  ERROR shmget(size=2097152 flags=0xb80) for ucp_am_bufs failed: Operation not permitted, please check shared memory limits by 'ipcs -l'


           ************************************************************
           *        Program running with 4 parallel MPI-processes     *
           *              working on a common directory               *
           ************************************************************
[1632406943.270639] [comp0808:103900:0]            sys.c:618  UCX  ERROR shmget(size=2097152 flags=0xb80) for ucp_am_bufs failed: Operation not permitted, please check shared memory limits by 'ipcs -l'


------------------------------------------------------------------------------- 
                              ORCA-MATRIX DRIVEN CI                            
------------------------------------------------------------------------------- 

--------------------------------
AUTOMATIC CHOICE OF INCORE LEVEL
--------------------------------

Memory available                           ...   2000.00 MB
Memory needed for S+T                      ...    623.36 MB
Memory needed for J+K                      ...   1248.32 MB
Memory needed for DIIS                     ...   8727.00 MB
Memory needed for 3-ext                    ...   3711.48 MB
Memory needed for 4-ext                    ...  17231.88 MB
Memory needed for triples                  ...    662.76 MB
 -> Final InCoreLevel    ... 2
 -> check shows that triples correction can be computed


Wavefunction type
-----------------
Correlation treatment                      ...      CCSD     
Single excitations                         ... ON
Orbital optimization                       ... OFF
Calculation of Z vector                    ... OFF
Calculation of Brueckner orbitals          ... OFF
Perturbative triple excitations            ... ON
Calculation of F12 correction              ... OFF
Frozen core treatment                      ... chemical core (38 el)
Reference Wavefunction                     ... RHF
  Internal Orbitals:    19 ...   46 ( 28 MO's/ 56 electrons)
  Virtual  Orbitals:    47 ...  305 (259 MO's              )
Number of AO's                             ...    306
Number of electrons                        ...     94
Number of correlated electrons             ...     56

Algorithmic settings
--------------------
Integral transformation                    ... AO direct full transformation
K(C) Formation                             ... FULL-MO TRAFO
Maximum number of iterations               ...        50
Convergence tolerance (max. residuum)      ... 2.500e-05
Level shift for amplitude update           ... 2.000e-01
Maximum number of DIIS vectors             ...         7
DIIS turned on at iteration                ...         0
Damping before turning on DIIS             ...     0.500
Damping after turning on DIIS              ...     0.000
Pair specific amplitude update             ... OFF
Natural orbital iterations                 ... OFF
Perturbative natural orbital generation    ... OFF
Printlevel                                 ... 2

Memory handling:
----------------
Maximum memory for working arrays          ...   2000 MB
Data storage in matrix containers          ... UNCOMPRESSED
Data type for integral storage             ... DOUBLE
In-Core Storage of quantities:
   Amplitudes+Sigma Vector      ... YES
   J+K operators                ... YES
   DIIS vectors                 ... NO
   3-external integrals         ... NO
   4-external integrals         ... NO


Initializing the integral package          ... done
Warning: reference  - re-canonicalizations have been set to INT 1 VIRT 1

--------------------------
CLOSED-SHELL FOCK OPERATOR
--------------------------

MDCI_FockCPCM: ediel   =  -0.112908916000
MDCI_FockCPCM: <VCPCM> =  -5.315026705422
<ss|ss>:      2129016 b       398432 skpd ( 18.7%)    0.104 s ( 0.000 ms/b)
<ss|sp>:      4400379 b       911241 skpd ( 20.7%)    0.394 s ( 0.000 ms/b)
<ss|sd>:      1966039 b       417501 skpd ( 21.2%)    0.205 s ( 0.000 ms/b)
<ss|sf>:       872649 b       188801 skpd ( 21.6%)    0.118 s ( 0.000 ms/b)
<ss|pp>:      1186225 b       245614 skpd ( 20.7%)    0.161 s ( 0.000 ms/b)
<ss|pd>:      1019122 b       217196 skpd ( 21.3%)    0.198 s ( 0.000 ms/b)
<ss|pf>:       441482 b        89263 skpd ( 20.2%)    0.107 s ( 0.000 ms/b)
<ss|dd>:       247560 b        52888 skpd ( 21.4%)    0.079 s ( 0.000 ms/b)
<ss|df>: [1632406944.848171] [comp0808:103902:0]            sys.c:618  UCX  ERROR shmget(size=2097152 flags=0xb80) for ucp_am_bufs failed: Operation not permitted, please check shared memory limits by 'ipcs -l'
      200111 b        45472 skpd ( 22.7%)    0.068 s ( 0.000 ms/b)
<ss|ff>:        49512 b         8433 skpd ( 17.0%)    0.027 s ( 0.001 ms/b)
<sp|sp>:      2275911 b       509720 skpd ( 22.4%)    0.306 s ( 0.000 ms/b)
<sp|sd>:      2032749 b       472486 skpd ( 23.2%)    0.360 s ( 0.000 ms/b)
<sp|sf>:       902259 b       214030 skpd ( 23.7%)    0.212 s ( 0.000 ms/b)
<sp|pp>:      1226475 b       270977 skpd ( 22.1%)    0.321 s ( 0.000 ms/b)
<sp|pd>:      1053702 b       241931 skpd ( 23.0%)    0.437 s ( 0.001 ms/b)
<sp|pf>:       456462 b       101610 skpd ( 22.3%)    0.243 s ( 0.001 ms/b)
<sp|dd>:       255960 b        59590 skpd ( 23.3%)    0.186 s ( 0.001 ms/b)
<sp|df>:       206901 b        52064 skpd ( 25.2%)    0.159 s ( 0.001 ms/b)
<sp|ff>:        51192 b         9809 skpd ( 19.2%)    0.065 s ( 0.002 ms/b)
<sd|sd>:       454581 b       108328 skpd ( 23.8%)    0.134 s ( 0.000 ms/b)
<sd|sf>:       403119 b       100145 skpd ( 24.8%)    0.162 s ( 0.001 ms/b)
<sd|pp>:       547975 b       127163 skpd ( 23.2%)    0.254 s ( 0.001 ms/b)
<sd|pd>:       470782 b       112553 skpd ( 23.9%)    0.349 s ( 0.001 ms/b)
<sd|pf>:       203942 b        47812 skpd ( 23.4%)    0.193 s ( 0.001 ms/b)
<sd|dd>:       114360 b        27250 skpd ( 23.8%)    0.159 s ( 0.002 ms/b)
<sd|df>:        92441 b        24065 skpd ( 26.0%)    0.141 s ( 0.002 ms/b)
<sd|ff>:        22872 b         4617 skpd ( 20.2%)    0.059 s ( 0.003 ms/b)
<sf|sf>:        89676 b        23632 skpd ( 26.4%)    0.058 s ( 0.001 ms/b)
<sf|pp>:       243225 b        57778 skpd ( 23.8%)    0.181 s ( 0.001 ms/b)
<sf|pd>:       208962 b        52278 skpd ( 25.0%)    0.253 s ( 0.002 ms/b)
<sf|pf>:        90522 b        22477 skpd ( 24.8%)    0.147 s ( 0.002 ms/b)
<sf|dd>:        50760 b        12829 skpd ( 25.3%)    0.123 s ( 0.003 ms/b)
<sf|df>:        41031 b        11367 skpd ( 27.7%)    0.113 s ( 0.004 ms/b)
<sf|ff>:        10152 b         2213 skpd ( 21.8%)    0.047 s ( 0.006 ms/b)
<pp|pp>:       165600 b        35471 skpd ( 21.4%)    0.113 s ( 0.001 ms/b)
<pp|pd>:       284050 b        64372 skpd ( 22.7%)    0.322 s ( 0.001 ms/b)
<pp|pf>:       123050 b        27144 skpd ( 22.1%)    0.184 s ( 0.002 ms/b)
<pp|dd>:        69000 b        15968 skpd ( 23.1%)    0.143 s ( 0.003 ms/b)
<pp|df>:        55775 b        13868 skpd ( 24.9%)    0.133 s ( 0.003 ms/b)
<pp|ff>:        13800 b         2751 skpd ( 19.9%)    0.055 s ( 0.005 ms/b)
<pd|pd>:       122265 b        28929 skpd ( 23.7%)    0.262 s ( 0.003 ms/b)
<pd|pf>:       105716 b        24891 skpd ( 23.5%)    0.276 s ( 0.003 ms/b)
<pd|dd>:        59280 b        14233 skpd ( 24.0%)    0.216 s ( 0.005 ms/b)
<pd|df>:        47918 b        12625 skpd ( 26.3%)    0.210 s ( 0.006 ms/b)
<pd|ff>:        11856 b         2452 skpd ( 20.7%)    0.086 s ( 0.009 ms/b)
<pf|pf>:        23005 b         5307 skpd ( 23.1%)    0.096 s ( 0.005 ms/b)
<pf|dd>:        25680 b         6087 skpd ( 23.7%)    0.146 s ( 0.007 ms/b)
<pf|df>:        20758 b         5504 skpd ( 26.5%)    0.142 s ( 0.009 ms/b)
<pf|ff>:         5136 b         1060 skpd ( 20.6%)    0.062 s ( 0.015 ms/b)
<dd|dd>:         7260 b         1739 skpd ( 24.0%)    0.058 s ( 0.010 ms/b)
<dd|df>:        11640 b         3018 skpd ( 25.9%)    0.097 s ( 0.011 ms/b)
<dd|ff>:         2880 b          617 skpd ( 21.4%)    0.040 s ( 0.018 ms/b)
<df|df>:         4753 b         1352 skpd ( 28.4%)    0.058 s ( 0.017 ms/b)
<df|ff>:         2328 b          563 skpd ( 24.2%)    0.049 s ( 0.028 ms/b)
<ff|ff>:          300 b           53 skpd ( 17.7%)    0.012 s ( 0.050 ms/b)
Recanonicalizing the internal orbitals
Recanonicalizing the virtual orbitals
Time needed for Fock operator              ...            8.912 sec
Reference energy                           ...  -3227.911145405
<ss|**>: 
------------------------------
PARTIAL COULOMB TRANSFORMATION
------------------------------

Transformation type                        ... one-operator
Dimension of the basis                     ...  306
Number of internal MOs                     ...  287 (19-305)
Pair cutoff                                ... 0.000e+00 Eh
Number of AO pairs included in the trafo   ... 46867
Total Number of distinct AO pairs          ... 46971
Memory devoted for trafo                   ... 2000.0 MB 
Max. Number of MO pairs treated together   ... 5580      
Max. Number of MOs treated per batch       ...   18      
Number Format for Storage                  ... Double (8 Byte)
AO-integral source                         ... DIRECT
Integral package used                      ... LIBINT

Starting integral evaluation:
    14639048 b        0 skpd     3.905 s (  0.000 ms/b)
<sp|**>:     15135768 b        0 skpd    10.183 s (  0.001 ms/b)
<sd|**>:      6762488 b        0 skpd     6.720 s (  0.001 ms/b)
<sf|**>:      3001608 b        0 skpd    14.384 s (  0.005 ms/b)
<pp|**>:      4080200 b        0 skpd    27.739 s (  0.007 ms/b)
<pd|**>:      3505424 b        0 skpd    14.393 s (  0.004 ms/b)
<pf|**>:      1518544 b        0 skpd    12.984 s (  0.009 ms/b)
<dd|**>:       851520 b        0 skpd    16.939 s (  0.020 ms/b)
<df|**>:       688312 b        0 skpd    19.503 s (  0.028 ms/b)
<ff|**>:       170304 b        0 skpd     5.295 s (  0.031 ms/b)
Closing buffer AOJ ( 3.10 GB; CompressionRatio= 1.00)
Collecting buffer AOJ 
    ... done with AO integral generation
Number of MO pairs included in the trafo   ... 41328
    ... Now sorting integrals
IBATCH = 1 of  2
IBATCH = 2 of  2
Closing buffer JAO ( 3.62 GB; CompressionRatio= 1.00)
Collecting buffer JAO 
TOTAL TIME for half transformation         ...   316.612 sec
AO-integral generation                     ...    30.609 sec
Half transformation                        ...   101.471 sec
J-integral sorting                         ...   182.096 sec

-------------------------- SECOND HALF TRANSFORMATION -------------------------
Formation of (pq|rs)                       ... ok (   145.547 sec)
Integral sorting                           ... ok (   259.494 sec)

------------------
CLOSED SHELL GUESS
------------------

Initial guess performed in     0.363 sec
E(0)                                       ...  -3227.911145405
E(MP2)                                     ...     -1.334866194
Initial E(tot)                             ...  -3229.246011598
<T|T>                                      ...      0.428281512
Number of pairs included                   ... 406
Total number of pairs                      ... 406

------------------------------------------------
                  RHF COUPLED CLUSTER ITERATIONS
------------------------------------------------

Number of amplitudes to be optimized       ... 27242138

Iter       E(tot)           E(Corr)          Delta-E          Residual     Time
  0  -3229.246011598     -1.334866194      0.000000000      0.014226709   87.74
                           *** Turning on DIIS ***
  1  -3229.285154223     -1.374008818     -0.039142624      0.002549957   95.77
  2  -3229.316014612     -1.404869207     -0.030860389      0.001149718  100.61
  3  -3229.322708415     -1.411563010     -0.006693803      0.000374973   96.85
  4  -3229.323727729     -1.412582324     -0.001019314      0.000211984   97.52
  5  -3229.323836975     -1.412691571     -0.000109246      0.000074904  109.72
  6  -3229.323858697     -1.412713292     -0.000021722      0.000033788  106.06
  7  -3229.323859877     -1.412714472     -0.000001179      0.000014294 1219.81
               --- The Coupled-Cluster iterations have converged ---

----------------------
COUPLED CLUSTER ENERGY
----------------------

E(0)                                       ...  -3227.911145405
E(CORR)                                    ...     -1.412714472
E(TOT)                                     ...  -3229.323859877
Singles Norm <S|S>**1/2                    ...      0.060327714  
T1 diagnostic                              ...      0.008061630  

------------------
LARGEST AMPLITUDES
------------------
  44->101  44->101       0.030560
  44-> 99  44-> 99       0.029897
  46->103  46->103       0.028277
  44-> 98  44-> 98       0.027861
  45-> 98  45-> 98       0.026838
  46->101  46->101       0.026636
  45-> 99  45-> 99       0.025954
  46-> 81  46-> 81       0.023956
  45-> 79  45-> 79       0.023771
  45->103  45->103       0.023499
  44-> 80  44-> 80       0.022117
  46->102  46->102       0.020380
  45-> 97  45-> 97       0.017238
  46->103  44->101       0.016517
  42-> 67  42-> 67       0.016123
  45-> 79  44-> 80       0.015279


        !!!!!!!!!!!!!!!!!!!!!!!!!!!!!!!!!!!!!!!!!!!!!!!!!!!!!!!!!!!!!!!!!!!!!!!!!! 
        !  Warning: Densities are linearized densities !                         !
        !!!!!!!!!!!!!!!!!!!!!!!!!!!!!!!!!!!!!!!!!!!!!!!!!!!!!!!!!!!!!!!!!!!!!!!!!! 

Trace of internal density part =     -1.002784697
Trace of external density part =      1.002784697
----------------------
RHF TRIPLES CORRECTION (Algorithm 1)
----------------------

Multiplier for the singles contribution    ...      1.000000000

10% done
20% done
30% done
40% done
50% done
60% done
70% done
80% done
90% done

Triples Correction (T)                     ...     -0.054460644
Scaling of triples based on CCSD energies (Peterson et al. Molecular Physics 113, 1551 (2015))
E(T*) = f*E(T) where f = E(F12-CCSD)/E(CCSD) 
f = CCSD (with F12)/ CCSD (without F12)    ...      1.000000000
Scaled triples correction (T)              ...     -0.054460644

Final correlation energy                   ...     -1.467175116
E(CCSD)                                    ...  -3229.323859877
E(CCSD(T))                                 ...  -3229.378320521

NORM  =      1.505031782 sqrt=     1.226797368
W(HF) =      0.664437796
------------------------------------------------------------------------------
                           ORCA POPULATION ANALYSIS
------------------------------------------------------------------------------
Input electron density              ... manual_reactants_345_sp.mdcip
BaseName (.gbw .S,...)              ... manual_reactants_345_sp

                    ********************************
                    * MULLIKEN POPULATION ANALYSIS *
                    ********************************

-----------------------
MULLIKEN ATOMIC CHARGES
-----------------------
   0 C :   -0.435302
   1 C :    0.132323
   2 C :   -0.443375
   3 C :   -0.444318
   4 C :   -0.213592
   5 Br:   -0.205115
   6 H :    0.127760
   7 H :    0.128893
   8 H :    0.127977
   9 H :    0.141763
  10 H :    0.142040
  11 H :    0.140056
  12 H :    0.140748
  13 H :    0.140238
  14 H :    0.142461
  15 H :    0.174895
  16 H :    0.176140
  17 Cl:   -0.973593
Sum of atomic charges:   -1.0000000

--------------------------------
MULLIKEN REDUCED ORBITAL CHARGES
--------------------------------
  0 C s       :     3.230406  s :     3.230406
      pz      :     0.984610  p :     3.101856
      px      :     1.035654
      py      :     1.081592
      dz2     :     0.023993  d :     0.094344
      dxz     :     0.021871
      dyz     :     0.012479
      dx2y2   :     0.011274
      dxy     :     0.024728
      f0      :     0.001254  f :     0.008696
      f+1     :     0.002008
      f-1     :     0.001026
      f+2     :     0.000992
      f-2     :     0.001123
      f+3     :     0.001456
      f-3     :     0.000837
  1 C s       :     2.946826  s :     2.946826
      pz      :     0.903610  p :     2.705506
      px      :     0.902706
      py      :     0.899190
      dz2     :     0.043282  d :     0.200306
      dxz     :     0.043900
      dyz     :     0.030384
      dx2y2   :     0.034996
      dxy     :     0.047745
      f0      :     0.002629  f :     0.015039
      f+1     :     0.002223
      f-1     :     0.001624
      f+2     :     0.001381
      f-2     :     0.002688
      f+3     :     0.001931
      f-3     :     0.002563
  2 C s       :     3.257177  s :     3.257177
      pz      :     0.983766  p :     3.083456
      px      :     1.023892
      py      :     1.075799
      dz2     :     0.025008  d :     0.093979
      dxz     :     0.019372
      dyz     :     0.012179
      dx2y2   :     0.011180
      dxy     :     0.026240
      f0      :     0.001232  f :     0.008762
      f+1     :     0.002029
      f-1     :     0.001007
      f+2     :     0.000957
      f-2     :     0.001157
      f+3     :     0.001517
      f-3     :     0.000863
  3 C s       :     3.258359  s :     3.258359
      pz      :     1.071948  p :     3.083264
      px      :     1.028143
      py      :     0.983173
      dz2     :     0.016125  d :     0.093934
      dxz     :     0.026007
      dyz     :     0.012892
      dx2y2   :     0.018435
      dxy     :     0.020475
      f0      :     0.001021  f :     0.008761
      f+1     :     0.001954
      f-1     :     0.000856
      f+2     :     0.000870
      f-2     :     0.001145
      f+3     :     0.001546
      f-3     :     0.001369
  4 C s       :     3.200626  s :     3.200626
      pz      :     0.880097  p :     2.864484
      px      :     0.961057
      py      :     1.023330
      dz2     :     0.026156  d :     0.138302
      dxz     :     0.037409
      dyz     :     0.021264
      dx2y2   :     0.026368
      dxy     :     0.027104
      f0      :     0.001323  f :     0.010180
      f+1     :     0.001935
      f-1     :     0.001002
      f+2     :     0.001294
      f-2     :     0.001524
      f+3     :     0.001590
      f-3     :     0.001513
  5 Brs       :     7.912313  s :     7.912313
      pz      :     5.516520  p :    17.143385
      px      :     5.705589
      py      :     5.921276
      dz2     :     2.026959  d :    10.129009
      dxz     :     2.032962
      dyz     :     2.023708
      dx2y2   :     2.022453
      dxy     :     2.022927
      f0      :     0.003007  f :     0.020408
      f+1     :     0.004073
      f-1     :     0.002518
      f+2     :     0.003194
      f-2     :     0.003082
      f+3     :     0.002202
      f-3     :     0.002332
  6 H s       :     0.848003  s :     0.848003
      pz      :     0.011445  p :     0.024237
      px      :     0.007490
      py      :     0.005301
  7 H s       :     0.846542  s :     0.846542
      pz      :     0.005212  p :     0.024565
      px      :     0.008704
      py      :     0.010650
  8 H s       :     0.847805  s :     0.847805
      pz      :     0.005225  p :     0.024218
      px      :     0.008443
      py      :     0.010549
  9 H s       :     0.833794  s :     0.833794
      pz      :     0.011602  p :     0.024443
      px      :     0.007602
      py      :     0.005239
 10 H s       :     0.833944  s :     0.833944
      pz      :     0.005153  p :     0.024016
      px      :     0.008553
      py      :     0.010310
 11 H s       :     0.836017  s :     0.836017
      pz      :     0.005112  p :     0.023927
      px      :     0.008002
      py      :     0.010813
 12 H s       :     0.834904  s :     0.834904
      pz      :     0.010817  p :     0.024348
      px      :     0.008257
      py      :     0.005275
 13 H s       :     0.835828  s :     0.835828
      pz      :     0.010506  p :     0.023934
      px      :     0.008247
      py      :     0.005181
 14 H s       :     0.833533  s :     0.833533
      pz      :     0.005200  p :     0.024006
      px      :     0.007711
      py      :     0.011095
 15 H s       :     0.800619  s :     0.800619
      pz      :     0.010733  p :     0.024486
      px      :     0.008646
      py      :     0.005107
 16 H s       :     0.799374  s :     0.799374
      pz      :     0.004810  p :     0.024485
      px      :     0.007843
      py      :     0.011832
 17 Cls       :     5.977001  s :     5.977001
      pz      :     3.956682  p :    11.876256
      px      :     3.959081
      py      :     3.960493
      dz2     :     0.022107  d :     0.110339
      dxz     :     0.022069
      dyz     :     0.022074
      dx2y2   :     0.022050
      dxy     :     0.022040
      f0      :     0.001429  f :     0.009997
      f+1     :     0.001432
      f-1     :     0.001428
      f+2     :     0.001429
      f-2     :     0.001428
      f+3     :     0.001426
      f-3     :     0.001426


                     *******************************
                     * LOEWDIN POPULATION ANALYSIS *
                     *******************************

----------------------
LOEWDIN ATOMIC CHARGES
----------------------
   0 C :   -0.290605
   1 C :   -0.398996
   2 C :   -0.281230
   3 C :   -0.279294
   4 C :   -0.406533
   5 Br:    0.184027
   6 H :    0.124987
   7 H :    0.124531
   8 H :    0.124831
   9 H :    0.122445
  10 H :    0.130241
  11 H :    0.129611
  12 H :    0.122683
  13 H :    0.129475
  14 H :    0.130979
  15 H :    0.141787
  16 H :    0.142109
  17 Cl:   -0.951048

-------------------------------
LOEWDIN REDUCED ORBITAL CHARGES
-------------------------------
  0 C s       :     2.825533  s :     2.825533
      pz      :     1.024129  p :     3.126877
      px      :     1.042470
      py      :     1.060279
      dz2     :     0.088867  d :     0.306819
      dxz     :     0.077524
      dyz     :     0.032687
      dx2y2   :     0.021189
      dxy     :     0.086552
      f0      :     0.004641  f :     0.031375
      f+1     :     0.006316
      f-1     :     0.005432
      f+2     :     0.005093
      f-2     :     0.003557
      f+3     :     0.004545
      f-3     :     0.001790
  1 C s       :     2.695387  s :     2.695387
      pz      :     0.989142  p :     2.944166
      px      :     0.980385
      py      :     0.974639
      dz2     :     0.148741  d :     0.680712
      dxz     :     0.153625
      dyz     :     0.098618
      dx2y2   :     0.115628
      dxy     :     0.164101
      f0      :     0.013891  f :     0.078730
      f+1     :     0.009450
      f-1     :     0.009880
      f+2     :     0.008617
      f-2     :     0.013929
      f+3     :     0.009417
      f-3     :     0.013545
  2 C s       :     2.825594  s :     2.825594
      pz      :     1.023647  p :     3.120863
      px      :     1.040220
      py      :     1.056996
      dz2     :     0.092115  d :     0.303142
      dxz     :     0.071216
      dyz     :     0.029392
      dx2y2   :     0.022359
      dxy     :     0.088061
      f0      :     0.004403  f :     0.031630
      f+1     :     0.006567
      f-1     :     0.005137
      f+2     :     0.005170
      f-2     :     0.003799
      f+3     :     0.004698
      f-3     :     0.001856
  3 C s       :     2.825583  s :     2.825583
      pz      :     1.056715  p :     3.119478
      px      :     1.040067
      py      :     1.022696
      dz2     :     0.046108  d :     0.302661
      dxz     :     0.088266
      dyz     :     0.033158
      dx2y2   :     0.060361
      dxy     :     0.074768
      f0      :     0.003061  f :     0.031572
      f+1     :     0.005092
      f-1     :     0.003801
      f+2     :     0.004120
      f-2     :     0.003655
      f+3     :     0.005878
      f-3     :     0.005966
  4 C s       :     2.864656  s :     2.864656
      pz      :     0.975938  p :     3.058168
      px      :     1.023967
      py      :     1.058262
      dz2     :     0.082664  d :     0.444156
      dxz     :     0.128222
      dyz     :     0.059431
      dx2y2   :     0.076733
      dxy     :     0.097106
      f0      :     0.004732  f :     0.039554
      f+1     :     0.006362
      f-1     :     0.004898
      f+2     :     0.005683
      f-2     :     0.005407
      f+3     :     0.006022
      f-3     :     0.006450
  5 Brs       :     7.604135  s :     7.604135
      pz      :     5.487409  p :    16.984737
      px      :     5.650306
      py      :     5.847022
      dz2     :     2.047255  d :    10.199359
      dxz     :     2.057984
      dyz     :     2.034523
      dx2y2   :     2.029655
      dxy     :     2.029942
      f0      :     0.004328  f :     0.027741
      f+1     :     0.006337
      f-1     :     0.003202
      f+2     :     0.004556
      f-2     :     0.004242
      f+3     :     0.002461
      f-3     :     0.002614
  6 H s       :     0.808239  s :     0.808239
      pz      :     0.030652  p :     0.066773
      px      :     0.021677
      py      :     0.014445
  7 H s       :     0.808379  s :     0.808379
      pz      :     0.013515  p :     0.067090
      px      :     0.023214
      py      :     0.030361
  8 H s       :     0.808419  s :     0.808419
      pz      :     0.013611  p :     0.066750
      px      :     0.022788
      py      :     0.030351
  9 H s       :     0.809908  s :     0.809908
      pz      :     0.031489  p :     0.067647
      px      :     0.021906
      py      :     0.014251
 10 H s       :     0.803315  s :     0.803315
      pz      :     0.013741  p :     0.066445
      px      :     0.023156
      py      :     0.029548
 11 H s       :     0.803984  s :     0.803984
      pz      :     0.013631  p :     0.066405
      px      :     0.021611
      py      :     0.031163
 12 H s       :     0.809890  s :     0.809890
      pz      :     0.031051  p :     0.067428
      px      :     0.022347
      py      :     0.014030
 13 H s       :     0.804135  s :     0.804135
      pz      :     0.030322  p :     0.066390
      px      :     0.022407
      py      :     0.013660
 14 H s       :     0.802640  s :     0.802640
      pz      :     0.014139  p :     0.066382
      px      :     0.022508
      py      :     0.029735
 15 H s       :     0.789715  s :     0.789715
      pz      :     0.031000  p :     0.068498
      px      :     0.023617
      py      :     0.013882
 16 H s       :     0.789387  s :     0.789387
      pz      :     0.012651  p :     0.068504
      px      :     0.023077
      py      :     0.032776
 17 Cls       :     5.974053  s :     5.974053
      pz      :     3.943526  p :    11.856129
      px      :     3.951829
      py      :     3.960774
      dz2     :     0.022223  d :     0.110852
      dxz     :     0.022294
      dyz     :     0.022154
      dx2y2   :     0.022106
      dxy     :     0.022074
      f0      :     0.001431  f :     0.010014
      f+1     :     0.001438
      f-1     :     0.001430
      f+2     :     0.001432
      f-2     :     0.001430
      f+3     :     0.001427
      f-3     :     0.001426


------------------
HIRSHFELD ANALYSIS
------------------

Total integrated alpha density =     47.005095162
Total integrated beta density  =     47.005095162

  ATOM     CHARGE      SPIN  
   0 C   -0.081756    0.000000
   1 C    0.026821    0.000000
   2 C   -0.080432    0.000000
   3 C   -0.079406    0.000000
   4 C    0.003746    0.000000
   5 Br  -0.140196    0.000000
   6 H    0.017742    0.000000
   7 H    0.015357    0.000000
   8 H    0.018027    0.000000
   9 H    0.014122    0.000000
  10 H    0.027482    0.000000
  11 H    0.026009    0.000000
  12 H    0.015360    0.000000
  13 H    0.026270    0.000000
  14 H    0.027385    0.000000
  15 H    0.046375    0.000000
  16 H    0.046113    0.000000
  17 Cl  -0.939208    0.000000

  TOTAL  -1.010190    0.000000     77938.3


                      *****************************
                      * MAYER POPULATION ANALYSIS *
                      *****************************

  NA   - Mulliken gross atomic population
  ZA   - Total nuclear charge
  QA   - Mulliken gross atomic charge
  VA   - Mayer's total valence
  BVA  - Mayer's bonded valence
  FA   - Mayer's free valence

  ATOM       NA         ZA         QA         VA         BVA        FA
  0 C      6.4353     6.0000    -0.4353     3.9640     3.5956     0.3684
  1 C      5.8677     6.0000     0.1323     3.9342     3.5618     0.3725
  2 C      6.4434     6.0000    -0.4434     3.9905     3.6234     0.3671
  3 C      6.4443     6.0000    -0.4443     3.9951     3.6282     0.3668
  4 C      6.2136     6.0000    -0.2136     3.9789     3.5913     0.3876
  5 Br    35.2051    35.0000    -0.2051     1.5919     0.9197     0.6721
  6 H      0.8722     1.0000     0.1278     1.0020     0.9365     0.0655
  7 H      0.8711     1.0000     0.1289     1.0125     0.9466     0.0659
  8 H      0.8720     1.0000     0.1280     1.0010     0.9356     0.0654
  9 H      0.8582     1.0000     0.1418     0.9810     0.9162     0.0648
 10 H      0.8580     1.0000     0.1420     0.9794     0.9154     0.0640
 11 H      0.8599     1.0000     0.1401     0.9790     0.9147     0.0643
 12 H      0.8593     1.0000     0.1407     0.9817     0.9167     0.0649
 13 H      0.8598     1.0000     0.1402     0.9787     0.9144     0.0643
 14 H      0.8575     1.0000     0.1425     0.9792     0.9152     0.0641
 15 H      0.8251     1.0000     0.1749     0.9700     0.9084     0.0617
 16 H      0.8239     1.0000     0.1761     0.9686     0.9070     0.0616
 17 Cl    17.9736    17.0000    -0.9736     0.7219     0.0429     0.6790

  Mayer bond orders larger than 0.100000
B(  0-C ,  1-C ) :   0.8942 B(  0-C ,  6-H ) :   0.9210 B(  0-C ,  7-H ) :   0.9207 
B(  0-C ,  8-H ) :   0.9207 B(  1-C ,  2-C ) :   0.8974 B(  1-C ,  3-C ) :   0.8987 
B(  1-C ,  4-C ) :   0.8998 B(  2-C ,  9-H ) :   0.9173 B(  2-C , 10-H ) :   0.9223 
B(  2-C , 11-H ) :   0.9210 B(  3-C , 12-H ) :   0.9168 B(  3-C , 13-H ) :   0.9207 
B(  3-C , 14-H ) :   0.9235 B(  4-C ,  5-Br) :   0.8754 B(  4-C , 15-H ) :   0.9092 
B(  4-C , 16-H ) :   0.9090 



------------------------------------------------------------------------------- 
                                     TIMINGS                                   
------------------------------------------------------------------------------- 


Total execution time                   ...     4770.886 sec

Fock Matrix Formation                  ...        8.912 sec (  0.2%)
Initial Guess                          ...        0.363 sec (  0.0%)
DIIS Solver                            ...       22.723 sec (  0.5%)
State Vector Update                    ...        0.930 sec (  0.0%)
Sigma-vector construction              ...     1890.422 sec ( 39.6%)
  <0|H|D>                              ...        0.383 sec (  0.0% of sigma)
  <D|H|D>(0-ext)                       ...       78.548 sec (  4.2% of sigma)
  <D|H|D>(2-ext Fock)                  ...        1.289 sec (  0.1% of sigma)
  <D|H|D>(2-ext)                       ...      128.182 sec (  6.8% of sigma)
  <D|H|D>(4-ext)                       ...     1143.027 sec ( 60.5% of sigma)
  <D|H|D>(4-ext-corr)                  ...      158.428 sec (  8.4% of sigma)
  <S|H|0>                              ...        0.140 sec (  0.0% of sigma)
  <S|H|S>                              ...        0.794 sec (  0.0% of sigma)
  <S|H|D>(1-ext)                       ...        7.277 sec (  0.4% of sigma)
  <D|H|S>(1-ext)                       ...       14.207 sec (  0.8% of sigma)
  <S|H|D>(3-ext)                       ...       50.952 sec (  2.7% of sigma)
  Fock-dressing                        ...       53.690 sec (  2.8% of sigma)
  (ik|jl)-dressing                     ...       82.628 sec (  4.4% of sigma)
  (ij|ab),(ia|jb)-dressing             ...      166.850 sec (  8.8% of sigma)
  Pair energies                        ...        0.489 sec (  0.0% of sigma)
Total Time for computing (T)           ...     2026.961 sec ( 42.5% of ALL)
  I/O of integral and amplitudes       ...       83.673 sec (  4.1% of (T))
  N**6 sorting step                    ...      572.638 sec ( 28.3% of (T))
  External N**7 contributions          ...      889.168 sec ( 43.9% of (T))
  Internal N**7 contributions          ...      186.730 sec (  9.2% of (T))
  N**6 triples energy contributions    ...      294.746 sec ( 14.5% of (T))
One-particle density matrix            ...        1.511 sec (  0.0%)


-------------------------   --------------------
FINAL SINGLE POINT ENERGY     -3229.378320520629
-------------------------   --------------------


                            ***************************************
                            *     ORCA property calculations      *
                            ***************************************

                                    ---------------------
                                    Active property flags
                                    ---------------------
   (+) Dipole Moment


------------------------------------------------------------------------------
                       ORCA ELECTRIC PROPERTIES CALCULATION
------------------------------------------------------------------------------

Dipole Moment Calculation                       ... on
Quadrupole Moment Calculation                   ... off
Polarizability Calculation                      ... off
GBWName                                         ... manual_reactants_345_sp.gbw
Electron density file                           ... manual_reactants_345_sp.scfp
The origin for moment calculation is the CENTER OF MASS  = (-0.103220, -0.057161  0.019080)

-------------
DIPOLE MOMENT
-------------
                                X             Y             Z
Electronic contribution:    -21.43860      16.66057     -15.54479
Nuclear contribution   :     16.22398     -14.91859       9.25411
                        -----------------------------------------
Total Dipole Moment    :     -5.21463       1.74198      -6.29068
                        -----------------------------------------
Magnitude (a.u.)       :      8.35461
Magnitude (Debye)      :     21.23573



--------------------
Rotational spectrum 
--------------------
 
Rotational constants in cm-1:     0.107018     0.010698     0.010408 
Rotational constants in MHz :  3208.325919   320.707515   312.018805 

 Dipole components along the rotational axes: 
x,y,z [a.u.] :    -8.320565    -0.753332     0.014452 
x,y,z [Debye]:   -21.149197    -1.914817     0.036734 

 

                           *** MDCI DENSITY ***

------------------------------------------------------------------------------
                       ORCA ELECTRIC PROPERTIES CALCULATION
------------------------------------------------------------------------------

Dipole Moment Calculation                       ... on
Quadrupole Moment Calculation                   ... off
Polarizability Calculation                      ... off
GBWName                                         ... manual_reactants_345_sp.gbw
Electron density file                           ... manual_reactants_345_sp.mdcip
The origin for moment calculation is the CENTER OF MASS  = (-0.103220, -0.057161  0.019080)

-------------
DIPOLE MOMENT
-------------
                                X             Y             Z
Electronic contribution:    -21.50577      16.68909     -15.62377
Nuclear contribution   :     16.22398     -14.91859       9.25411
                        -----------------------------------------
Total Dipole Moment    :     -5.28179       1.77051      -6.36966
                        -----------------------------------------
Magnitude (a.u.)       :      8.46195
Magnitude (Debye)      :     21.50857



--------------------
Rotational spectrum 
--------------------
 
Rotational constants in cm-1:     0.107018     0.010698     0.010408 
Rotational constants in MHz :  3208.325919   320.707515   312.018805 

 Dipole components along the rotational axes: 
x,y,z [a.u.] :    -8.428016    -0.756976     0.012524 
x,y,z [Debye]:   -21.422314    -1.924080     0.031832 

 
[1632411745.642003] [comp0808:107041:0]            sys.c:618  UCX  ERROR shmget(size=2097152 flags=0xfb0) for mm_recv_desc failed: Operation not permitted, please check shared memory limits by 'ipcs -l'
[1632411745.642123] [comp0808:107043:0]            sys.c:618  UCX  ERROR shmget(size=2097152 flags=0xfb0) for mm_recv_desc failed: Operation not permitted, please check shared memory limits by 'ipcs -l'
[1632411745.642549] [comp0808:107045:0]            sys.c:618  UCX  ERROR shmget(size=2097152 flags=0xfb0) for mm_recv_desc failed: Operation not permitted, please check shared memory limits by 'ipcs -l'
[1632411745.642958] [comp0808:107042:0]            sys.c:618  UCX  ERROR shmget(size=2097152 flags=0xfb0) for mm_recv_desc failed: Operation not permitted, please check shared memory limits by 'ipcs -l'
[1632411745.691969] [comp0808:107041:0]            sys.c:618  UCX  ERROR shmget(size=2097152 flags=0xb80) for ucp_am_bufs failed: Operation not permitted, please check shared memory limits by 'ipcs -l'
[1632411745.692794] [comp0808:107042:0]            sys.c:618  UCX  ERROR shmget(size=2097152 flags=0xb80) for ucp_am_bufs failed: Operation not permitted, please check shared memory limits by 'ipcs -l'
[1632411745.724508] [comp0808:107043:0]            sys.c:618  UCX  ERROR shmget(size=2097152 flags=0xb80) for ucp_am_bufs failed: Operation not permitted, please check shared memory limits by 'ipcs -l'

Timings for individual modules:

Sum of individual times         ...     4877.982 sec (=  81.300 min)
GTO integral calculation        ...        1.917 sec (=   0.032 min)   0.0 %
SCF iterations                  ...       84.192 sec (=   1.403 min)   1.7 %
MDCI module                     ...     4791.874 sec (=  79.865 min)  98.2 %
                             ****ORCA TERMINATED NORMALLY****
TOTAL RUN TIME: 0 days 1 hours 21 minutes 33 seconds 289 msec
