
                                 *****************
                                 * O   R   C   A *
                                 *****************

           --- An Ab Initio, DFT and Semiempirical electronic structure package ---

                  #######################################################
                  #                        -***-                        #
                  #          Department of theory and spectroscopy      #
                  #               Directorship: Frank Neese             #
                  #        Max Planck Institute fuer Kohlenforschung    #
                  #                Kaiser Wilhelm Platz 1               #
                  #                 D-45470 Muelheim/Ruhr               #
                  #                      Germany                        #
                  #                                                     #
                  #                  All rights reserved                #
                  #                        -***-                        #
                  #######################################################


                         Program Version 4.2.1 -  RELEASE  -


 With contributions from (in alphabetic order):
   Daniel Aravena         : Magnetic Suceptibility
   Michael Atanasov       : Ab Initio Ligand Field Theory (pilot matlab implementation)
   Alexander A. Auer      : GIAO ZORA, VPT2
   Ute Becker             : Parallelization
   Giovanni Bistoni       : ED, misc. LED, open-shell LED, HFLD
   Martin Brehm           : Molecular dynamics
   Dmytro Bykov           : SCF Hessian
   Vijay G. Chilkuri      : MRCI spin determinant printing, contributions to CSF-ICE
   Dipayan Datta          : RHF DLPNO-CCSD density
   Achintya Kumar Dutta   : EOM-CC, STEOM-CC
   Dmitry Ganyushin       : Spin-Orbit,Spin-Spin,Magnetic field MRCI
   Miquel Garcia          : C-PCM Hessian, Gaussian charge scheme
   Yang Guo               : DLPNO-NEVPT2, CIM, IAO-localization
   Andreas Hansen         : Spin unrestricted coupled pair/coupled cluster methods
   Benjamin Helmich-Paris : CASSCF linear response (MC-RPA)
   Lee Huntington         : MR-EOM, pCC
   Robert Izsak           : Overlap fitted RIJCOSX, COSX-SCS-MP3, EOM
   Christian Kollmar      : KDIIS, OOCD, Brueckner-CCSD(T), CCSD density
   Simone Kossmann        : Meta GGA functionals, TD-DFT gradient, OOMP2, MP2 Hessian
   Martin Krupicka        : AUTO-CI
   Lucas Lang             : DCDCAS
   Dagmar Lenk            : GEPOL surface, SMD
   Dimitrios Liakos       : Extrapolation schemes; Compound Job, initial MDCI parallelization
   Dimitrios Manganas     : Further ROCIS development; embedding schemes
   Dimitrios Pantazis     : SARC Basis sets
   Taras Petrenko         : DFT Hessian,TD-DFT gradient, ASA, ECA, R-Raman, ABS, FL, XAS/XES, NRVS
   Peter Pinski           : DLPNO-MP2, DLPNO-MP2 Gradient
   Christoph Reimann      : Effective Core Potentials
   Marius Retegan         : Local ZFS, SOC
   Christoph Riplinger    : Optimizer, TS searches, QM/MM, DLPNO-CCSD(T), (RO)-DLPNO pert. Triples
   Tobias Risthaus        : Range-separated hybrids, TD-DFT gradient, RPA, STAB
   Michael Roemelt        : Original ROCIS implementation
   Masaaki Saitow         : Open-shell DLPNO-CCSD energy and density
   Barbara Sandhoefer     : DKH picture change effects
   Avijit Sen             : IP-ROCIS
   Kantharuban Sivalingam : CASSCF convergence, NEVPT2, FIC-MRCI
   Bernardo de Souza      : ESD, SOC TD-DFT
   Georgi Stoychev        : AutoAux, RI-MP2 NMR
   Willem Van den Heuvel  : Paramagnetic NMR
   Boris Wezisla          : Elementary symmetry handling
   Frank Wennmohs         : Technical directorship


 We gratefully acknowledge several colleagues who have allowed us to
 interface, adapt or use parts of their codes:
   Stefan Grimme, W. Hujo, H. Kruse,             : VdW corrections, initial TS optimization,
                  C. Bannwarth                     DFT functionals, gCP, sTDA/sTD-DF
   Ed Valeev, F. Pavosevic, A. Kumar             : LibInt (2-el integral package), F12 methods
   Garnet Chan, S. Sharma, J. Yang, R. Olivares  : DMRG
   Ulf Ekstrom                                   : XCFun DFT Library
   Mihaly Kallay                                 : mrcc  (arbitrary order and MRCC methods)
   Andreas Klamt, Michael Diedenhofen            : otool_cosmo (COSMO solvation model)
   Jiri Pittner, Ondrej Demel                    : Mk-CCSD
   Frank Weinhold                                : gennbo (NPA and NBO analysis)
   Christopher J. Cramer and Donald G. Truhlar   : smd solvation model
   Lars Goerigk                                  : TD-DFT with DH, B97 family of functionals
   V. Asgeirsson, H. Jonsson                     : NEB implementation
   FAccTs GmbH                                   : IRC, NEB, NEB-TS, Multilevel, MM, QM/MM, CI optimization
   S Lehtola, MJT Oliveira, MAL Marques          : LibXC Library


 Your calculation uses the libint2 library for the computation of 2-el integrals
 For citations please refer to: http://libint.valeyev.net

 Your ORCA version has been built with support for libXC version: 4.2.3
 For citations please refer to: https://tddft.org/programs/libxc/

 This ORCA versions uses:
   CBLAS   interface :  Fast vector & matrix operations
   LAPACKE interface :  Fast linear algebra routines
   SCALAPACK package :  Parallel linear algebra routines


----- Orbital basis set information -----
Your calculation utilizes the basis: def2-TZVP
   F. Weigend and R. Ahlrichs, Phys. Chem. Chem. Phys. 7, 3297 (2005).

================================================================================
                                        WARNINGS
                       Please study these warnings very carefully!
================================================================================


WARNING: MDCI localization with Augmented Hessian Foster-Boys
  ===> : Switching off randomization!

WARNING: Post HF methods need fully converged wavefunctions
  ===> : Setting SCFConvForced true
         You can overwrite this default with %scf ConvForced false 


INFO   : the flag for use of LIBINT has been found!

================================================================================
                                       INPUT FILE
================================================================================
NAME = manual_328_complex_sp.inp
|  1> ! SP CCSD(T) def2-TZVP CPCM(Acetone)
|  2> %cpcm
|  3> surfacetype vdw_gaussian
|  4> end
|  5> %geom MaxIter 100 end
|  6> %output 
|  7> xyzfile=True 
|  8> end 
|  9> %scf 
| 10> maxiter 250 
| 11> end
| 12> %output
| 13> Print[P_Hirshfeld] = 1
| 14> end
| 15> % maxcore
| 16> 4000
| 17> %pal nprocs 4
| 18> end
| 19> *xyz -1 1
| 20>   C   -1.72225423972797     -0.43060317531096     -0.59617525498761
| 21>   C   -0.23568444963270     -0.65754339910671     -0.54696512101846
| 22>   Br  0.75801552450217      0.97306815406782     -1.01652721003859
| 23>   H   -2.22892441760429     -1.37269563672509     -0.33055711517932
| 24>   H   -2.03414550915918      0.32689520099230      0.13654446435225
| 25>   H   -2.06131791363200     -0.11974112724272     -1.59531506927116
| 26>   H   0.10744716350727     -1.41171070762745     -1.26527914814838
| 27>   H   0.09434173493088     -0.93117137579165      0.46505641525359
| 28>   Br  -0.88491789318418     -1.67360793325553      3.10510803903768
| 29> *
| 30> 
| 31>                          ****END OF INPUT****
================================================================================

                       ****************************
                       * Single Point Calculation *
                       ****************************

---------------------------------
CARTESIAN COORDINATES (ANGSTROEM)
---------------------------------
  C     -1.722254   -0.430603   -0.596175
  C     -0.235684   -0.657543   -0.546965
  Br     0.758016    0.973068   -1.016527
  H     -2.228924   -1.372696   -0.330557
  H     -2.034146    0.326895    0.136544
  H     -2.061318   -0.119741   -1.595315
  H      0.107447   -1.411711   -1.265279
  H      0.094342   -0.931171    0.465056
  Br    -0.884918   -1.673608    3.105108

----------------------------
CARTESIAN COORDINATES (A.U.)
----------------------------
  NO LB      ZA    FRAG     MASS         X           Y           Z
   0 C     6.0000    0    12.011   -3.254589   -0.813722   -1.126608
   1 C     6.0000    0    12.011   -0.445379   -1.242577   -1.033614
   2 Br   35.0000    0    79.900    1.432442    1.838832   -1.920958
   3 H     1.0000    0     1.008   -4.212057   -2.594019   -0.624662
   4 H     1.0000    0     1.008   -3.843978    0.617742    0.258032
   5 H     1.0000    0     1.008   -3.895326   -0.226278   -3.014709
   6 H     1.0000    0     1.008    0.203046   -2.667747   -2.391031
   7 H     1.0000    0     1.008    0.178280   -1.759659    0.878829
   8 Br   35.0000    0    79.900   -1.672252   -3.162661    5.867804

--------------------------------
INTERNAL COORDINATES (ANGSTROEM)
--------------------------------
 C      0   0   0     0.000000000000     0.00000000     0.00000000
 C      1   0   0     1.504597369161     0.00000000     0.00000000
 Br     2   1   0     1.966423716137   111.49349449     0.00000000
 H      1   2   3     1.102182322122   108.50479463   179.73602913
 H      1   2   3     1.099071490468   111.25551849   297.59970374
 H      1   2   3     1.099945342450   112.14166963    59.79563174
 H      2   1   3     1.096577710310   113.04608101   242.21005703
 H      2   1   3     1.099080134476   111.36721697   118.09564460
 Br     8   2   1     2.912049799945   142.87125635     9.36450464

---------------------------
INTERNAL COORDINATES (A.U.)
---------------------------
 C      0   0   0     0.000000000000     0.00000000     0.00000000
 C      1   0   0     2.843276969532     0.00000000     0.00000000
 Br     2   1   0     3.716002286747   111.49349449     0.00000000
 H      1   2   3     2.082822738460   108.50479463   179.73602913
 H      1   2   3     2.076944118585   111.25551849   297.59970374
 H      1   2   3     2.078595459512   112.14166963    59.79563174
 H      2   1   3     2.072231557049   113.04608101   242.21005703
 H      2   1   3     2.076960453394   111.36721697   118.09564460
 Br     8   2   1     5.502976610236   142.87125635     9.36450464

---------------------
BASIS SET INFORMATION
---------------------
There are 3 groups of distinct atoms

 Group   1 Type C   : 11s6p2d1f contracted to 5s3p2d1f pattern {62111/411/11/1}
 Group   2 Type Br  : 17s13p8d1f contracted to 6s5p4d1f pattern {842111/64111/5111/1}
 Group   3 Type H   : 5s1p contracted to 3s1p pattern {311/1}

Atom   0C    basis set group =>   1
Atom   1C    basis set group =>   1
Atom   2Br   basis set group =>   2
Atom   3H    basis set group =>   3
Atom   4H    basis set group =>   3
Atom   5H    basis set group =>   3
Atom   6H    basis set group =>   3
Atom   7H    basis set group =>   3
Atom   8Br   basis set group =>   2
[1631527004.341003] [comp0801:66312:0]            sys.c:618  UCX  ERROR shmget(size=2097152 flags=0xfb0) for mm_recv_desc failed: Operation not permitted, please check shared memory limits by 'ipcs -l'
[1631527004.341570] [comp0801:66310:0]            sys.c:618  UCX  ERROR shmget(size=2097152 flags=0xfb0) for mm_recv_desc failed: Operation not permitted, please check shared memory limits by 'ipcs -l'
[1631527004.341644] [comp0801:66308:0]            sys.c:618  UCX  ERROR shmget(size=2097152 flags=0xfb0) for mm_recv_desc failed: Operation not permitted, please check shared memory limits by 'ipcs -l'
[1631527004.341864] [comp0801:66314:0]            sys.c:618  UCX  ERROR shmget(size=2097152 flags=0xfb0) for mm_recv_desc failed: Operation not permitted, please check shared memory limits by 'ipcs -l'
[1631527004.348602] [comp0801:66308:0]            sys.c:618  UCX  ERROR shmget(size=2097152 flags=0xb80) for ucp_am_bufs failed: Operation not permitted, please check shared memory limits by 'ipcs -l'
[1631527004.349374] [comp0801:66310:0]            sys.c:618  UCX  ERROR shmget(size=2097152 flags=0xb80) for ucp_am_bufs failed: Operation not permitted, please check shared memory limits by 'ipcs -l'
[1631527004.355372] [comp0801:66312:0]            sys.c:618  UCX  ERROR shmget(size=2097152 flags=0xb80) for ucp_am_bufs failed: Operation not permitted, please check shared memory limits by 'ipcs -l'


           ************************************************************
           *        Program running with 4 parallel MPI-processes     *
           *              working on a common directory               *
           ************************************************************
------------------------------------------------------------------------------
                           ORCA GTO INTEGRAL CALCULATION
------------------------------------------------------------------------------

                         BASIS SET STATISTICS AND STARTUP INFO

 # of primitive gaussian shells          ...  148
 # of primitive gaussian functions       ...  338
 # of contracted shells                  ...   74
 # of contracted basis functions         ...  188
 Highest angular momentum                ...    3
 Maximum contraction depth               ...    8
 Integral package used                   ... LIBINT
 Integral threshhold            Thresh   ...  1.000e-10
 Primitive cut-off              TCut     ...  1.000e-11


------------------------------ INTEGRAL EVALUATION ----------------------------


 * One electron integrals 
 Pre-screening matrix                    ... done
 Shell pair data                         ... done (   0.001 sec)

[1631527005.661720] [comp0801:66392:0]            sys.c:618  UCX  ERROR shmget(size=2097152 flags=0xfb0) for mm_recv_desc failed: Operation not permitted, please check shared memory limits by 'ipcs -l'
[1631527005.666348] [comp0801:66394:0]            sys.c:618  UCX  ERROR shmget(size=2097152 flags=0xfb0) for mm_recv_desc failed: Operation not permitted, please check shared memory limits by 'ipcs -l'
[1631527005.670003] [comp0801:66393:0]            sys.c:618  UCX  ERROR shmget(size=2097152 flags=0xfb0) for mm_recv_desc failed: Operation not permitted, please check shared memory limits by 'ipcs -l'
[1631527005.670720] [comp0801:66395:0]            sys.c:618  UCX  ERROR shmget(size=2097152 flags=0xfb0) for mm_recv_desc failed: Operation not permitted, please check shared memory limits by 'ipcs -l'
[1631527005.679848] [comp0801:66392:0]            sys.c:618  UCX  ERROR shmget(size=2097152 flags=0xb80) for ucp_am_bufs failed: Operation not permitted, please check shared memory limits by 'ipcs -l'
[1631527005.680532] [comp0801:66394:0]            sys.c:618  UCX  ERROR shmget(size=2097152 flags=0xb80) for ucp_am_bufs failed: Operation not permitted, please check shared memory limits by 'ipcs -l'
[1631527005.681222] [comp0801:66393:0]            sys.c:618  UCX  ERROR shmget(size=2097152 flags=0xb80) for ucp_am_bufs failed: Operation not permitted, please check shared memory limits by 'ipcs -l'


           ************************************************************
           *        Program running with 4 parallel MPI-processes     *
           *              working on a common directory               *
           ************************************************************
[1631527005.684551] [comp0801:66395:0]            sys.c:618  UCX  ERROR shmget(size=2097152 flags=0xb80) for ucp_am_bufs failed: Operation not permitted, please check shared memory limits by 'ipcs -l'
-------------------------------------------------------------------------------
                                 ORCA SCF
-------------------------------------------------------------------------------

------------
SCF SETTINGS
------------
Hamiltonian:
 Ab initio Hamiltonian  Method          .... Hartree-Fock(GTOs)


General Settings:
 Integral files         IntName         .... manual_328_complex_sp
 Hartree-Fock type      HFTyp           .... RHF
 Total Charge           Charge          ....   -1
 Multiplicity           Mult            ....    1
 Number of Electrons    NEL             ....   88
 Basis Dimension        Dim             ....  188
 Nuclear Repulsion      ENuc            ....    369.8233530058 Eh

Convergence Acceleration:
 DIIS                   CNVDIIS         .... on
   Start iteration      DIISMaxIt       ....    12
   Startup error        DIISStart       ....  0.200000
   # of expansion vecs  DIISMaxEq       ....     5
   Bias factor          DIISBfac        ....   1.050
   Max. coefficient     DIISMaxC        ....  10.000
 Newton-Raphson         CNVNR           .... off
 SOSCF                  CNVSOSCF        .... on
   Start iteration      SOSCFMaxIt      ....   150
   Startup grad/error   SOSCFStart      ....  0.003300
 Level Shifting         CNVShift        .... on
   Level shift para.    LevelShift      ....    0.2500
   Turn off err/grad.   ShiftErr        ....    0.0010
 Zerner damping         CNVZerner       .... off
 Static damping         CNVDamp         .... on
   Fraction old density DampFac         ....    0.7000
   Max. Damping (<1)    DampMax         ....    0.9800
   Min. Damping (>=0)   DampMin         ....    0.0000
   Turn off err/grad.   DampErr         ....    0.1000
 Fernandez-Rico         CNVRico         .... off

SCF Procedure:
 Maximum # iterations   MaxIter         ....   250
 SCF integral mode      SCFMode         .... Direct
   Integral package                     .... LIBINT
 Reset frequency        DirectResetFreq ....    20
 Integral Threshold     Thresh          ....  1.000e-10 Eh
 Primitive CutOff       TCut            ....  1.000e-11 Eh

Convergence Tolerance:
 Convergence Check Mode ConvCheckMode   .... Total+1el-Energy
 Convergence forced     ConvForced      .... 1
 Energy Change          TolE            ....  1.000e-06 Eh
 1-El. energy change                    ....  1.000e-03 Eh
 Orbital Gradient       TolG            ....  5.000e-05
 Orbital Rotation angle TolX            ....  5.000e-05
 DIIS Error             TolErr          ....  1.000e-06


Diagonalization of the overlap matrix:
Smallest eigenvalue                        ... 4.914e-04
Time for diagonalization                   ...    0.009 sec
Threshold for overlap eigenvalues          ... 1.000e-08
Number of eigenvalues below threshold      ... 0
Time for construction of square roots      ...    0.003 sec
Total time needed                          ...    0.012 sec

-------------------
DFT GRID GENERATION
-------------------

General Integration Accuracy     IntAcc      ...  4.340
Radial Grid Type                 RadialGrid  ... Gauss-Chebyshev
Angular Grid (max. acc.)         AngularGrid ... Lebedev-110
Angular grid pruning method      GridPruning ... 3 (G Style)
Weight generation scheme         WeightScheme... Becke
Basis function cutoff            BFCut       ...    1.0000e-10
Integration weight cutoff        WCut        ...    1.0000e-14
Grids for H and He will be reduced by one unit

# of grid points (after initial pruning)     ...  13062 (   0.0 sec)
# of grid points (after weights+screening)   ...  12643 (   0.0 sec)
nearest neighbour list constructed           ...    0.0 sec
Grid point re-assignment to atoms done       ...    0.0 sec
Grid point division into batches done        ...    0.0 sec
Reduced shell lists constructed in    0.1 sec

Total number of grid points                  ...    12643
Total number of batches                      ...      202
Average number of points per batch           ...       62
Average number of grid points per atom       ...     1405
Average number of shells per batch           ...    50.13 (67.75%)
Average number of basis functions per batch  ...   130.44 (69.38%)
Average number of large shells per batch     ...    42.06 (83.89%)
Average number of large basis fcns per batch ...   108.02 (82.81%)
Maximum spatial batch extension              ...  19.21, 15.67, 17.34 au
Average spatial batch extension              ...   0.99,  0.84,  0.86 au

Time for grid setup =    0.078 sec

------------------------------
INITIAL GUESS: MODEL POTENTIAL
------------------------------
Loading Hartree-Fock densities                     ... done
Calculating cut-offs                               ... done
Setting up the integral package                    ... done
Initializing the effective Hamiltonian             ... done
Starting the Coulomb interaction                   ... done (   0.0 sec)
Reading the grid                                   ... done
Mapping shells                                     ... done
Starting the XC term evaluation                    ... done (   0.0 sec)
Transforming the Hamiltonian                       ... done (   0.0 sec)
Diagonalizing the Hamiltonian                      ... done (   0.0 sec)
Back transforming the eigenvectors                 ... done (   0.0 sec)
Now organizing SCF variables                       ... done
                      ------------------
                      INITIAL GUESS DONE (   0.2 sec)
                      ------------------

--------------------
CPCM SOLVATION MODEL
--------------------
CPCM parameters:
  Epsilon                                         ...      20.7000
  Refrac                                          ...       1.3590
  Rsolv                                           ...       1.3000
  Surface type                                    ... GAUSSIAN VDW
  Epsilon function type                           ...         CPCM
Radii:
 Radius for C  used is    3.8550 Bohr (=   2.0400 Ang.)
 Radius for Br used is    4.1952 Bohr (=   2.2200 Ang.)
 Radius for H  used is    2.4944 Bohr (=   1.3200 Ang.)
Calculating surface                               ...        done! (  0.0s)
GEPOL surface points                              ...          617
GEPOL Volume                                      ...     910.6769
GEPOL Surface-area                                ...     574.6715
Calculating surface distance matrix               ...        done! (  0.0s)
Performing Cholesky decomposition & store         ...        done! (  0.0s)
Overall time for CPCM initialization              ...                 0.0s
--------------
SCF ITERATIONS
--------------
ITER       Energy         Delta-E        Max-DP      RMS-DP      [F,P]     Damp
               ***  Starting incremental Fock matrix formation  ***
  0  -5223.4478682344   0.000000000000 0.09311162  0.00121982  0.2212152 0.7000
  1  -5223.5276036034  -0.079735368970 0.07568348  0.00103830  0.1643417 0.7000
                               ***Turning on DIIS***
  2  -5223.5780381565  -0.050434553108 0.05266966  0.00074556  0.1215436 0.7000
  3  -5224.1412612488  -0.563223092293 0.11363610  0.00171016  0.0897639 0.0000
  4  -5223.6740007447   0.467260504091 0.00904200  0.00020426  0.0082323 0.0000
  5  -5223.6707060030   0.003294741621 0.00531995  0.00011455  0.0036814 0.0000
                      *** Initiating the SOSCF procedure ***
                           *** Shutting down DIIS ***
                      *** Re-Reading the Fockian *** 
                      *** Removing any level shift *** 
ITER      Energy       Delta-E        Grad      Rot      Max-DP    RMS-DP
  6  -5223.68224953  -0.0115435232  0.001395  0.001395  0.002037  0.000061
               *** Restarting incremental Fock matrix formation ***
  7  -5223.68593354  -0.0036840179  0.000556  0.000912  0.001087  0.000030
  8  -5223.68593879  -0.0000052488  0.000299  0.001032  0.000913  0.000026
  9  -5223.68594056  -0.0000017661  0.000115  0.000038  0.000195  0.000005
 10  -5223.68594062  -0.0000000648  0.000027  0.000018  0.000076  0.000002
                 **** Energy Check signals convergence ****
              ***Rediagonalizing the Fockian in SOSCF/NRSCF***

               *****************************************************
               *                     SUCCESS                       *
               *           SCF CONVERGED AFTER  11 CYCLES          *
               *****************************************************


----------------
TOTAL SCF ENERGY
----------------

Total Energy       :        -5223.68594063 Eh         -142143.72089 eV

Components:
Nuclear Repulsion  :          369.82335301 Eh           10063.40505 eV
Electronic Energy  :        -5593.50929363 Eh         -152207.12594 eV
One Electron Energy:        -8026.69247186 Eh         -218417.40629 eV
Two Electron Energy:         2433.18317823 Eh           66210.28035 eV
CPCM Dielectric    :           -0.09923288 Eh              -2.70026 eV

Virial components:
Potential Energy   :       -10447.17696784 Eh         -284282.13792 eV
Kinetic Energy     :         5223.49102722 Eh          142138.41703 eV
Virial Ratio       :            2.00003731

CPCM Solvation Model Properties:
Surface-charge          :            0.96429715
Charge-correction       :           -0.00497920 Eh              -0.13549 eV
Free-energy (cav+disp)  :            0.00383975 Eh               0.10449 eV
Corrected G(solv)       :        -5223.68708007 Eh         -142143.75190 eV

---------------
SCF CONVERGENCE
---------------

  Last Energy change         ...   -2.2246e-09  Tolerance :   1.0000e-06
  Last MAX-Density change    ...    3.2367e-05  Tolerance :   1.0000e-05
  Last RMS-Density change    ...    5.9087e-07  Tolerance :   1.0000e-06
  Last Orbital Gradient      ...    6.8508e-06  Tolerance :   5.0000e-05
  Last Orbital Rotation      ...    9.1542e-06  Tolerance :   5.0000e-05

             **** THE GBW FILE WAS UPDATED (manual_328_complex_sp.gbw) ****
             **** DENSITY FILE WAS UPDATED (manual_328_complex_sp.scfp) ****
             **** ENERGY FILE WAS UPDATED (manual_328_complex_sp.en.tmp) ****
             **** THE GBW FILE WAS UPDATED (manual_328_complex_sp.gbw) ****
             **** DENSITY FILE WAS UPDATED (manual_328_complex_sp.scfp) ****
----------------
ORBITAL ENERGIES
----------------

  NO   OCC          E(Eh)            E(eV) 
   0   2.0000    -490.000229    -13333.5841 
   1   2.0000    -489.910172    -13331.1335 
   2   2.0000     -65.142848     -1772.6270 
   3   2.0000     -65.053404     -1770.1931 
   4   2.0000     -58.497947     -1591.8101 
   5   2.0000     -58.496778     -1591.7783 
   6   2.0000     -58.496769     -1591.7780 
   7   2.0000     -58.407789     -1589.3568 
   8   2.0000     -58.407787     -1589.3567 
   9   2.0000     -58.407767     -1589.3562 
  10   2.0000     -11.276647      -306.8532 
  11   2.0000     -11.217581      -305.2459 
  12   2.0000      -9.816328      -267.1159 
  13   2.0000      -9.726798      -264.6796 
  14   2.0000      -7.427787      -202.1204 
  15   2.0000      -7.422157      -201.9672 
  16   2.0000      -7.422106      -201.9658 
  17   2.0000      -7.334825      -199.5907 
  18   2.0000      -7.334816      -199.5905 
  19   2.0000      -7.334737      -199.5883 
  20   2.0000      -3.170115       -86.2632 
  21   2.0000      -3.167231       -86.1847 
  22   2.0000      -3.167197       -86.1838 
  23   2.0000      -3.160032       -85.9888 
  24   2.0000      -3.160025       -85.9886 
  25   2.0000      -3.075594       -83.6912 
  26   2.0000      -3.075593       -83.6912 
  27   2.0000      -3.075475       -83.6879 
  28   2.0000      -3.075457       -83.6874 
  29   2.0000      -3.075421       -83.6865 
  30   2.0000      -1.071547       -29.1583 
  31   2.0000      -0.959495       -26.1092 
  32   2.0000      -0.887299       -24.1446 
  33   2.0000      -0.817342       -22.2410 
  34   2.0000      -0.626943       -17.0600 
  35   2.0000      -0.582213       -15.8428 
  36   2.0000      -0.539881       -14.6909 
  37   2.0000      -0.505543       -13.7565 
  38   2.0000      -0.460498       -12.5308 
  39   2.0000      -0.397339       -10.8121 
  40   2.0000      -0.396452       -10.7880 
  41   2.0000      -0.342507        -9.3201 
  42   2.0000      -0.342343        -9.3156 
  43   2.0000      -0.340584        -9.2678 
  44   0.0000       0.148923         4.0524 
  45   0.0000       0.170581         4.6417 
  46   0.0000       0.200344         5.4516 
  47   0.0000       0.227323         6.1858 
  48   0.0000       0.229744         6.2517 
  49   0.0000       0.250439         6.8148 
  50   0.0000       0.283351         7.7104 
  51   0.0000       0.316242         8.6054 
  52   0.0000       0.328559         8.9405 
  53   0.0000       0.349433         9.5086 
  54   0.0000       0.358371         9.7518 
  55   0.0000       0.385130        10.4799 
  56   0.0000       0.391417        10.6510 
  57   0.0000       0.400621        10.9014 
  58   0.0000       0.402411        10.9502 
  59   0.0000       0.423620        11.5273 
  60   0.0000       0.432607        11.7718 
  61   0.0000       0.437594        11.9075 
  62   0.0000       0.474524        12.9125 
  63   0.0000       0.477618        12.9966 
  64   0.0000       0.498959        13.5774 
  65   0.0000       0.511032        13.9059 
  66   0.0000       0.517635        14.0856 
  67   0.0000       0.533330        14.5127 
  68   0.0000       0.553024        15.0485 
  69   0.0000       0.576769        15.6947 
  70   0.0000       0.594747        16.1839 
  71   0.0000       0.601432        16.3658 
  72   0.0000       0.625235        17.0135 
  73   0.0000       0.639633        17.4053 
  74   0.0000       0.651335        17.7237 
  75   0.0000       0.686264        18.6742 
  76   0.0000       0.687729        18.7141 
  77   0.0000       0.719956        19.5910 
  78   0.0000       0.742853        20.2140 
  79   0.0000       0.807612        21.9762 
  80   0.0000       0.949842        25.8465 
  81   0.0000       0.962001        26.1774 
  82   0.0000       0.990477        26.9523 
  83   0.0000       1.034915        28.1615 
  84   0.0000       1.052614        28.6431 
  85   0.0000       1.134081        30.8599 
  86   0.0000       1.192220        32.4420 
  87   0.0000       1.239154        33.7191 
  88   0.0000       1.244103        33.8538 
  89   0.0000       1.280405        34.8416 
  90   0.0000       1.305686        35.5295 
  91   0.0000       1.332049        36.2469 
  92   0.0000       1.591777        43.3145 
  93   0.0000       1.627611        44.2895 
  94   0.0000       1.629608        44.3439 
  95   0.0000       1.644130        44.7390 
  96   0.0000       1.663178        45.2574 
  97   0.0000       1.673132        45.5282 
  98   0.0000       1.676977        45.6329 
  99   0.0000       1.693082        46.0711 
 100   0.0000       1.710084        46.5337 
 101   0.0000       1.738598        47.3097 
 102   0.0000       1.748425        47.5771 
 103   0.0000       1.775175        48.3050 
 104   0.0000       1.795737        48.8645 
 105   0.0000       1.806511        49.1577 
 106   0.0000       1.819581        49.5133 
 107   0.0000       1.825034        49.6617 
 108   0.0000       1.840502        50.0826 
 109   0.0000       1.857008        50.5318 
 110   0.0000       1.862582        50.6834 
 111   0.0000       1.874190        50.9993 
 112   0.0000       1.892661        51.5019 
 113   0.0000       1.900144        51.7056 
 114   0.0000       1.900872        51.7254 
 115   0.0000       1.900930        51.7269 
 116   0.0000       1.901523        51.7431 
 117   0.0000       1.904802        51.8323 
 118   0.0000       1.906153        51.8691 
 119   0.0000       1.925786        52.4033 
 120   0.0000       1.935609        52.6706 
 121   0.0000       1.947425        52.9921 
 122   0.0000       1.971063        53.6353 
 123   0.0000       1.974836        53.7380 
 124   0.0000       1.984888        54.0115 
 125   0.0000       1.991948        54.2037 
 126   0.0000       2.014803        54.8256 
 127   0.0000       2.068552        56.2882 
 128   0.0000       2.101159        57.1754 
 129   0.0000       2.110833        57.4387 
 130   0.0000       2.128526        57.9201 
 131   0.0000       2.251087        61.2552 
 132   0.0000       2.288701        62.2787 
 133   0.0000       2.305066        62.7240 
 134   0.0000       2.452427        66.7339 
 135   0.0000       2.588654        70.4409 
 136   0.0000       2.610280        71.0293 
 137   0.0000       2.619667        71.2848 
 138   0.0000       2.659185        72.3601 
 139   0.0000       2.694605        73.3239 
 140   0.0000       2.750847        74.8544 
 141   0.0000       2.786040        75.8120 
 142   0.0000       2.858675        77.7885 
 143   0.0000       2.872116        78.1542 
 144   0.0000       2.913321        79.2755 
 145   0.0000       2.931416        79.7679 
 146   0.0000       2.943301        80.0913 
 147   0.0000       3.036017        82.6142 
 148   0.0000       3.076709        83.7215 
 149   0.0000       3.224180        87.7344 
 150   0.0000       3.337433        90.8162 
 151   0.0000       3.390592        92.2627 
 152   0.0000       3.420491        93.0763 
 153   0.0000       3.444858        93.7393 
 154   0.0000       3.512036        95.5674 
 155   0.0000       3.527835        95.9973 
 156   0.0000       3.617421        98.4350 
 157   0.0000       3.646376        99.2229 
 158   0.0000       3.652705        99.3952 
 159   0.0000       3.737440       101.7009 
 160   0.0000       3.767671       102.5236 
 161   0.0000       3.836827       104.4054 
 162   0.0000       3.892390       105.9173 
 163   0.0000       4.068162       110.7003 
 164   0.0000       4.145008       112.7914 
 165   0.0000       4.245370       115.5224 
 166   0.0000       4.277602       116.3995 
 167   0.0000       4.327376       117.7539 
 168   0.0000       4.474330       121.7527 
 169   0.0000       4.503088       122.5353 
 170   0.0000       4.525588       123.1475 
 171   0.0000       4.526689       123.1775 
 172   0.0000       4.533898       123.3736 
 173   0.0000       4.556788       123.9965 
 174   0.0000       4.584058       124.7386 
 175   0.0000       4.608076       125.3921 
 176   0.0000       4.637643       126.1967 
 177   0.0000       4.656974       126.7227 
 178   0.0000       4.728314       128.6640 
 179   0.0000       4.773861       129.9034 
 180   0.0000       4.799381       130.5978 
 181   0.0000       4.903236       133.4238 
 182   0.0000       5.010300       136.3372 
 183   0.0000       5.119792       139.3166 
 184   0.0000       7.789547       211.9644 
 185   0.0000       8.179218       222.5678 
 186   0.0000      23.279015       633.4542 
 187   0.0000      23.429478       637.5485 

                    ********************************
                    * MULLIKEN POPULATION ANALYSIS *
                    ********************************

-----------------------
MULLIKEN ATOMIC CHARGES
-----------------------
   0 C :   -0.321826
   1 C :   -0.075047
   2 Br:   -0.269298
   3 H :    0.120652
   4 H :    0.117702
   5 H :    0.122039
   6 H :    0.142929
   7 H :    0.141707
   8 Br:   -0.978858
Sum of atomic charges:   -1.0000000

--------------------------------
MULLIKEN REDUCED ORBITAL CHARGES
--------------------------------
  0 C s       :     3.202336  s :     3.202336
      pz      :     1.060472  p :     3.033880
      px      :     0.914463
      py      :     1.058945
      dz2     :     0.014650  d :     0.080797
      dxz     :     0.017337
      dyz     :     0.014914
      dx2y2   :     0.016427
      dxy     :     0.017469
      f0      :     0.000718  f :     0.004813
      f+1     :     0.000681
      f-1     :     0.000705
      f+2     :     0.000714
      f-2     :     0.000162
      f+3     :     0.001217
      f-3     :     0.000615
  1 C s       :     3.153238  s :     3.153238
      pz      :     1.050704  p :     2.790167
      px      :     0.923519
      py      :     0.815944
      dz2     :     0.019281  d :     0.125154
      dxz     :     0.024863
      dyz     :     0.021815
      dx2y2   :     0.023420
      dxy     :     0.035775
      f0      :     0.000860  f :     0.006488
      f+1     :     0.000877
      f-1     :     0.000777
      f+2     :     0.000719
      f-2     :     0.000517
      f+3     :     0.001426
      f-3     :     0.001312
  2 Brs       :     7.913464  s :     7.913464
      pz      :     5.952555  p :    17.303711
      px      :     5.823821
      py      :     5.527335
      dz2     :     2.006757  d :    10.046047
      dxz     :     2.002877
      dyz     :     2.009337
      dx2y2   :     2.009401
      dxy     :     2.017675
      f0      :     0.000573  f :     0.006076
      f+1     :     0.000327
      f-1     :     0.000878
      f+2     :     0.000453
      f-2     :     0.000891
      f+3     :     0.001918
      f-3     :     0.001036
  3 H s       :     0.857813  s :     0.857813
      pz      :     0.004286  p :     0.021535
      px      :     0.005982
      py      :     0.011267
  4 H s       :     0.860644  s :     0.860644
      pz      :     0.008455  p :     0.021654
      px      :     0.004446
      py      :     0.008753
  5 H s       :     0.856558  s :     0.856558
      pz      :     0.012387  p :     0.021402
      px      :     0.004596
      py      :     0.004419
  6 H s       :     0.834633  s :     0.834633
      pz      :     0.008497  p :     0.022438
      px      :     0.004761
      py      :     0.009180
  7 H s       :     0.834779  s :     0.834779
      pz      :     0.015072  p :     0.023514
      px      :     0.004434
      py      :     0.004008
  8 Brs       :     7.987356  s :     7.987356
      pz      :     5.996166  p :    17.991070
      px      :     5.996644
      py      :     5.998260
      dz2     :     2.000257  d :    10.000416
      dxz     :     2.000084
      dyz     :     2.000062
      dx2y2   :     2.000006
      dxy     :     2.000007
      f0      :     0.000005  f :     0.000016
      f+1     :     0.000006
      f-1     :     0.000003
      f+2     :     0.000000
      f-2     :     0.000001
      f+3     :     0.000000
      f-3     :     0.000000


                     *******************************
                     * LOEWDIN POPULATION ANALYSIS *
                     *******************************

----------------------
LOEWDIN ATOMIC CHARGES
----------------------
   0 C :   -0.327162
   1 C :   -0.441788
   2 Br:    0.127053
   3 H :    0.123569
   4 H :    0.116732
   5 H :    0.115566
   6 H :    0.124985
   7 H :    0.113562
   8 Br:   -0.952517

-------------------------------
LOEWDIN REDUCED ORBITAL CHARGES
-------------------------------
  0 C s       :     2.837853  s :     2.837853
      pz      :     1.066127  p :     3.175556
      px      :     1.042321
      py      :     1.067108
      dz2     :     0.045772  d :     0.287871
      dxz     :     0.069210
      dyz     :     0.041377
      dx2y2   :     0.057153
      dxy     :     0.074358
      f0      :     0.003479  f :     0.025882
      f+1     :     0.003608
      f-1     :     0.001935
      f+2     :     0.004939
      f-2     :     0.002253
      f+3     :     0.005256
      f-3     :     0.004411
  1 C s       :     2.873520  s :     2.873520
      pz      :     1.084657  p :     3.103208
      px      :     1.068749
      py      :     0.949802
      dz2     :     0.062282  d :     0.430381
      dxz     :     0.081696
      dyz     :     0.072094
      dx2y2   :     0.090295
      dxy     :     0.124014
      f0      :     0.004257  f :     0.034679
      f+1     :     0.003754
      f-1     :     0.002664
      f+2     :     0.005206
      f-2     :     0.004032
      f+3     :     0.006718
      f-3     :     0.008048
  2 Brs       :     7.615317  s :     7.615317
      pz      :     5.889588  p :    17.133939
      px      :     5.750227
      py      :     5.494123
      dz2     :     2.015301  d :    10.111612
      dxz     :     2.007126
      dyz     :     2.024955
      dx2y2   :     2.028906
      dxy     :     2.035323
      f0      :     0.001117  f :     0.012079
      f+1     :     0.000658
      f-1     :     0.001718
      f+2     :     0.000962
      f-2     :     0.001838
      f+3     :     0.003194
      f-3     :     0.002591
  3 H s       :     0.817087  s :     0.817087
      pz      :     0.013423  p :     0.059344
      px      :     0.015966
      py      :     0.029955
  4 H s       :     0.823592  s :     0.823592
      pz      :     0.023262  p :     0.059676
      px      :     0.012669
      py      :     0.023745
  5 H s       :     0.825054  s :     0.825054
      pz      :     0.032492  p :     0.059379
      px      :     0.012978
      py      :     0.013909
  6 H s       :     0.812987  s :     0.812987
      pz      :     0.024347  p :     0.062028
      px      :     0.013385
      py      :     0.024296
  7 H s       :     0.821517  s :     0.821517
      pz      :     0.039986  p :     0.064921
      px      :     0.012880
      py      :     0.012055
  8 Brs       :     7.986201  s :     7.986201
      pz      :     5.973763  p :    17.964601
      px      :     5.994586
      py      :     5.996251
      dz2     :     2.000833  d :    10.001681
      dxz     :     2.000573
      dyz     :     2.000212
      dx2y2   :     2.000010
      dxy     :     2.000052
      f0      :     0.000009  f :     0.000034
      f+1     :     0.000015
      f-1     :     0.000006
      f+2     :     0.000001
      f-2     :     0.000004
      f+3     :     0.000000
      f-3     :     0.000000


                      *****************************
                      * MAYER POPULATION ANALYSIS *
                      *****************************

  NA   - Mulliken gross atomic population
  ZA   - Total nuclear charge
  QA   - Mulliken gross atomic charge
  VA   - Mayer's total valence
  BVA  - Mayer's bonded valence
  FA   - Mayer's free valence

  ATOM       NA         ZA         QA         VA         BVA        FA
  0 C      6.3218     6.0000    -0.3218     3.9063     3.9063    -0.0000
  1 C      6.0750     6.0000    -0.0750     3.8346     3.8346     0.0000
  2 Br    35.2693    35.0000    -0.2693     0.9518     0.9518     0.0000
  3 H      0.8793     1.0000     0.1207     0.9804     0.9804     0.0000
  4 H      0.8823     1.0000     0.1177     0.9826     0.9826    -0.0000
  5 H      0.8780     1.0000     0.1220     0.9720     0.9720    -0.0000
  6 H      0.8571     1.0000     0.1429     0.9661     0.9661     0.0000
  7 H      0.8583     1.0000     0.1417     1.0044     1.0044    -0.0000
  8 Br    35.9789    35.0000    -0.9789     0.0359     0.0359    -0.0000

  Mayer bond orders larger than 0.100000
B(  0-C ,  1-C ) :   1.0017 B(  0-C ,  3-H ) :   0.9697 B(  0-C ,  4-H ) :   0.9784 
B(  0-C ,  5-H ) :   0.9760 B(  1-C ,  2-Br) :   0.9251 B(  1-C ,  6-H ) :   0.9717 
B(  1-C ,  7-H ) :   0.9632 


------------------
HIRSHFELD ANALYSIS
------------------

Total integrated alpha density =     43.998362037
Total integrated beta density  =     43.998362037

  ATOM     CHARGE      SPIN    
   0 C   -0.053107    0.000000
   1 C    0.037729    0.000000
   2 Br  -0.201173    0.000000
   3 H    0.028656    0.000000
   4 H    0.022244    0.000000
   5 H    0.025570    0.000000
   6 H    0.045712    0.000000
   7 H    0.021022    0.000000
   8 Br  -0.923377    0.000000

  TOTAL  -0.996724    0.000000

-------
TIMINGS
-------

Total SCF time: 0 days 0 hours 0 min 18 sec 

Total time                  ....      18.024 sec
Sum of individual times     ....      17.797 sec  ( 98.7%)

Fock matrix formation       ....      17.340 sec  ( 96.2%)
Diagonalization             ....       0.033 sec  (  0.2%)
Density matrix formation    ....       0.005 sec  (  0.0%)
Population analysis         ....       0.041 sec  (  0.2%)
Initial guess               ....       0.145 sec  (  0.8%)
Orbital Transformation      ....       0.000 sec  (  0.0%)
Orbital Orthonormalization  ....       0.000 sec  (  0.0%)
DIIS solution               ....       0.140 sec  (  0.8%)
SOSCF solution              ....       0.014 sec  (  0.1%)
[1631527024.630212] [comp0801:66491:0]            sys.c:618  UCX  ERROR shmget(size=2097152 flags=0xfb0) for mm_recv_desc failed: Operation not permitted, please check shared memory limits by 'ipcs -l'
[1631527024.634358] [comp0801:66493:0]            sys.c:618  UCX  ERROR shmget(size=2097152 flags=0xfb0) for mm_recv_desc failed: Operation not permitted, please check shared memory limits by 'ipcs -l'
[1631527024.645283] [comp0801:66494:0]            sys.c:618  UCX  ERROR shmget(size=2097152 flags=0xfb0) for mm_recv_desc failed: Operation not permitted, please check shared memory limits by 'ipcs -l'
[1631527024.655152] [comp0801:66492:0]            sys.c:618  UCX  ERROR shmget(size=2097152 flags=0xfb0) for mm_recv_desc failed: Operation not permitted, please check shared memory limits by 'ipcs -l'
[1631527024.662966] [comp0801:66491:0]            sys.c:618  UCX  ERROR shmget(size=2097152 flags=0xb80) for ucp_am_bufs failed: Operation not permitted, please check shared memory limits by 'ipcs -l'
[1631527024.663651] [comp0801:66492:0]            sys.c:618  UCX  ERROR shmget(size=2097152 flags=0xb80) for ucp_am_bufs failed: Operation not permitted, please check shared memory limits by 'ipcs -l'


           ************************************************************
           *        Program running with 4 parallel MPI-processes     *
           *              working on a common directory               *
           ************************************************************
[1631527024.671207] [comp0801:66493:0]            sys.c:618  UCX  ERROR shmget(size=2097152 flags=0xb80) for ucp_am_bufs failed: Operation not permitted, please check shared memory limits by 'ipcs -l'


------------------------------------------------------------------------------- 
                              ORCA-MATRIX DRIVEN CI                            
------------------------------------------------------------------------------- 

--------------------------------
AUTOMATIC CHOICE OF INCORE LEVEL
--------------------------------

Memory available                           ...   2000.00 MB
Memory needed for S+T                      ...    142.38 MB
Memory needed for J+K                      ...    285.42 MB
Memory needed for DIIS                     ...   1993.36 MB
Memory needed for 3-ext                    ...    546.75 MB
Memory needed for 4-ext                    ...   1651.64 MB
Memory needed for triples                  ...    113.91 MB
 -> Final InCoreLevel    ... 2
 -> check shows that triples correction can be computed


Wavefunction type
-----------------
Correlation treatment                      ...      CCSD     
Single excitations                         ... ON
Orbital optimization                       ... OFF
Calculation of Z vector                    ... OFF
Calculation of Brueckner orbitals          ... OFF
Perturbative triple excitations            ... ON
Calculation of F12 correction              ... OFF
Frozen core treatment                      ... chemical core (40 el)
Reference Wavefunction                     ... RHF
  Internal Orbitals:    20 ...   43 ( 24 MO's/ 48 electrons)
  Virtual  Orbitals:    44 ...  187 (144 MO's              )
Number of AO's                             ...    188
Number of electrons                        ...     88
Number of correlated electrons             ...     48

Algorithmic settings
--------------------
Integral transformation                    ... AO direct full transformation
K(C) Formation                             ... FULL-MO TRAFO
Maximum number of iterations               ...        50
Convergence tolerance (max. residuum)      ... 2.500e-05
Level shift for amplitude update           ... 2.000e-01
Maximum number of DIIS vectors             ...         7
DIIS turned on at iteration                ...         0
Damping before turning on DIIS             ...     0.500
Damping after turning on DIIS              ...     0.000
Pair specific amplitude update             ... OFF
Natural orbital iterations                 ... OFF
Perturbative natural orbital generation    ... OFF
Printlevel                                 ... 2

Memory handling:
----------------
Maximum memory for working arrays          ...   2000 MB
Data storage in matrix containers          ... UNCOMPRESSED
Data type for integral storage             ... DOUBLE
In-Core Storage of quantities:
   Amplitudes+Sigma Vector      ... YES
   J+K operators                ... YES
   DIIS vectors                 ... NO
   3-external integrals         ... NO
   4-external integrals         ... NO


Initializing the integral package          ... done
Warning: reference  - re-canonicalizations have been set to INT 1 VIRT 1

--------------------------
CLOSED-SHELL FOCK OPERATOR
--------------------------

MDCI_FockCPCM: ediel   =  -0.099232876000
MDCI_FockCPCM: <VCPCM> =  -6.543328455793
<ss|ss>:       181503 b        25832 skpd ( 14.2%)    0.016 s ( 0.000 ms/b)
<ss|sp>:       405146 b        61140 skpd ( 15.1%)    0.057 s ( 0.000 ms/b)
<ss|sd>:       227556 b        40312 skpd ( 17.7%)    0.037 s ( 0.000 ms/b)
<ss|sf>:        78260 b        13323 skpd ( 17.0%)    0.015 s ( 0.000 ms/b)
<ss|pp>:       124012 b        18387 skpd ( 14.8%)    0.028 s ( 0.000 ms/b)
<ss|pd>:       133042 b        24832 skpd ( 18.7%)    0.035 s ( 0.000 ms/b)
<ss|pf>: [1631527025.007616] [comp0801:66494:0]            sys.c:618  UCX  ERROR shmget(size=2097152 flags=0xb80) for ucp_am_bufs failed: Operation not permitted, please check shared memory limits by 'ipcs -l'
       46354 b         8614 skpd ( 18.6%)    0.014 s ( 0.000 ms/b)
<ss|dd>:        40936 b         7672 skpd ( 18.7%)    0.021 s ( 0.001 ms/b)
<ss|df>:        25284 b         5109 skpd ( 20.2%)    0.013 s ( 0.001 ms/b)
<ss|ff>:         6020 b         1190 skpd ( 19.8%)    0.004 s ( 0.001 ms/b)
<sp|sp>:       226801 b        34169 skpd ( 15.1%)    0.042 s ( 0.000 ms/b)
<sp|sd>:       254394 b        47210 skpd ( 18.6%)    0.068 s ( 0.000 ms/b)
<sp|sf>:        87490 b        15578 skpd ( 17.8%)    0.030 s ( 0.000 ms/b)
<sp|pp>:       138638 b        19604 skpd ( 14.1%)    0.060 s ( 0.001 ms/b)
<sp|pd>:       148733 b        27551 skpd ( 18.5%)    0.085 s ( 0.001 ms/b)
<sp|pf>:        51821 b         9435 skpd ( 18.2%)    0.036 s ( 0.001 ms/b)
<sp|dd>:        45764 b         8854 skpd ( 19.3%)    0.053 s ( 0.001 ms/b)
<sp|df>:        28266 b         5981 skpd ( 21.2%)    0.033 s ( 0.001 ms/b)
<sp|ff>:         6730 b         1404 skpd ( 20.9%)    0.011 s ( 0.002 ms/b)
<sd|sd>:        71631 b        15811 skpd ( 22.1%)    0.034 s ( 0.001 ms/b)
<sd|sf>:        49140 b        10674 skpd ( 21.7%)    0.028 s ( 0.001 ms/b)
<sd|pp>:        77868 b        13959 skpd ( 17.9%)    0.060 s ( 0.001 ms/b)
<sd|pd>:        83538 b        18969 skpd ( 22.7%)    0.084 s ( 0.001 ms/b)
<sd|pf>:        29106 b         6649 skpd ( 22.8%)    0.035 s ( 0.002 ms/b)
<sd|dd>:        25704 b         5767 skpd ( 22.4%)    0.058 s ( 0.003 ms/b)
<sd|df>:        15876 b         4114 skpd ( 25.9%)    0.038 s ( 0.003 ms/b)
<sd|ff>:         3780 b         1000 skpd ( 26.5%)    0.012 s ( 0.004 ms/b)
<sf|sf>:         8515 b         1753 skpd ( 20.6%)    0.007 s ( 0.001 ms/b)
<sf|pp>:        26780 b         4651 skpd ( 17.4%)    0.031 s ( 0.001 ms/b)
<sf|pd>:        28730 b         6452 skpd ( 22.5%)    0.043 s ( 0.002 ms/b)
<sf|pf>:        10010 b         2206 skpd ( 22.0%)    0.020 s ( 0.003 ms/b)
<sf|dd>:         8840 b         2030 skpd ( 23.0%)    0.032 s ( 0.005 ms/b)
<sf|df>:         5460 b         1422 skpd ( 26.0%)    0.021 s ( 0.005 ms/b)
<sf|ff>:         1300 b          333 skpd ( 25.6%)    0.007 s ( 0.007 ms/b)
<pp|pp>:        21321 b         2758 skpd ( 12.9%)    0.026 s ( 0.001 ms/b)
<pp|pd>:        45526 b         7608 skpd ( 16.7%)    0.074 s ( 0.002 ms/b)
<pp|pf>:        15862 b         2698 skpd ( 17.0%)    0.032 s ( 0.002 ms/b)
<pp|dd>:        14008 b         2546 skpd ( 18.2%)    0.048 s ( 0.004 ms/b)
<pp|df>:         8652 b         1711 skpd ( 19.8%)    0.033 s ( 0.005 ms/b)
<pp|ff>:         2060 b          394 skpd ( 19.1%)    0.011 s ( 0.006 ms/b)
<pd|pd>:        24531 b         5354 skpd ( 21.8%)    0.068 s ( 0.004 ms/b)
<pd|pf>:        17017 b         3802 skpd ( 22.3%)    0.058 s ( 0.004 ms/b)
<pd|dd>:        15028 b         3349 skpd ( 22.3%)    0.094 s ( 0.008 ms/b)
<pd|df>:         9282 b         2392 skpd ( 25.8%)    0.064 s ( 0.009 ms/b)
<pd|ff>:         2210 b          584 skpd ( 26.4%)    0.020 s ( 0.012 ms/b)
<pf|pf>:         3003 b          657 skpd ( 21.9%)    0.014 s ( 0.006 ms/b)
<pf|dd>:         5236 b         1256 skpd ( 24.0%)    0.041 s ( 0.010 ms/b)
<pf|df>:         3234 b          888 skpd ( 27.5%)    0.031 s ( 0.013 ms/b)
<pf|ff>:          770 b          210 skpd ( 27.3%)    0.010 s ( 0.018 ms/b)
<dd|dd>:         2346 b          506 skpd ( 21.6%)    0.035 s ( 0.019 ms/b)
<dd|df>:         2856 b          712 skpd ( 24.9%)    0.042 s ( 0.020 ms/b)
<dd|ff>:          680 b          179 skpd ( 26.3%)    0.013 s ( 0.026 ms/b)
<df|df>:          903 b          269 skpd ( 29.8%)    0.014 s ( 0.022 ms/b)
<df|ff>:          420 b          130 skpd ( 31.0%)    0.010 s ( 0.034 ms/b)
<ff|ff>:           55 b           17 skpd ( 30.9%)    0.003 s ( 0.068 ms/b)
Recanonicalizing the internal orbitals
Recanonicalizing the virtual orbitals
Time needed for Fock operator              ...            1.922 sec
Reference energy                           ...  -5223.685940906

------------------------------
PARTIAL COULOMB TRANSFORMATION
------------------------------

Transformation type                        ... one-operator
Dimension of the basis                     ...  188
Number of internal MOs                     ...  168 (20-187)
Pair cutoff                                ... 0.000e+00 Eh
Number of AO pairs included in the trafo   ... 17730
Total Number of distinct AO pairs          ... 17766
Memory devoted for trafo                   ... 2000.0 MB 
Max. Number of MO pairs treated together   ... 14755      
Max. Number of MOs treated per batch       ...   78      
Number Format for Storage                  ... Double (8 Byte)
AO-integral source                         ... DIRECT
Integral package used                      ... LIBINT

Starting integral evaluation:
<ss|**>:      1449014 b        0 skpd     0.372 s (  0.000 ms/b)
<sp|**>:      1619911 b        0 skpd     0.955 s (  0.001 ms/b)
<sd|**>:       909846 b        0 skpd     0.861 s (  0.001 ms/b)
<sf|**>:       312910 b        0 skpd     0.460 s (  0.001 ms/b)
<pp|**>:       495842 b        0 skpd     0.737 s (  0.001 ms/b)
<pd|**>:       531947 b        0 skpd     1.310 s (  0.002 ms/b)
<pf|**>:       185339 b        0 skpd     0.615 s (  0.003 ms/b)
<dd|**>:       163676 b        0 skpd     0.763 s (  0.005 ms/b)
<df|**>:       101094 b        0 skpd     0.636 s (  0.006 ms/b)
<ff|**>:        24070 b        0 skpd     0.226 s (  0.009 ms/b)
Closing buffer AOJ ( 0.41 GB; CompressionRatio= 1.00)
Collecting buffer AOJ 
    ... done with AO integral generation
Number of MO pairs included in the trafo   ... 14196
    ... Now sorting integrals
IBATCH = 1 of  1
Closing buffer JAO ( 0.47 GB; CompressionRatio= 1.00)
Collecting buffer JAO 
TOTAL TIME for half transformation         ...    12.162 sec
AO-integral generation                     ...     4.877 sec
Half transformation                        ...     2.063 sec
J-integral sorting                         ...     4.859 sec

-------------------------- SECOND HALF TRANSFORMATION -------------------------
Formation of (pq|rs)                       ... ok (     2.496 sec)
Integral sorting                           ... ok (     5.373 sec)

------------------
CLOSED SHELL GUESS
------------------

Initial guess performed in     0.063 sec
E(0)                                       ...  -5223.685940906
E(MP2)                                     ...     -0.904496207
Initial E(tot)                             ...  -5224.590437113
<T|T>                                      ...      0.270019566
Number of pairs included                   ... 300
Total number of pairs                      ... 300

------------------------------------------------
                  RHF COUPLED CLUSTER ITERATIONS
------------------------------------------------

Number of amplitudes to be optimized       ... 6224256

Iter       E(tot)           E(Corr)          Delta-E          Residual     Time
  0  -5224.590437113     -0.904496207      0.000000000      0.018678042   10.45
                           *** Turning on DIIS ***
  1  -5224.603176734     -0.917235828     -0.012739622      0.003826065   11.91
  2  -5224.622035803     -0.936094897     -0.018859068      0.001569070   12.58
  3  -5224.626681790     -0.940740884     -0.004645988      0.000657801   13.53
  4  -5224.627347890     -0.941406985     -0.000666100      0.000275512   12.02
  5  -5224.627418776     -0.941477870     -0.000070885      0.000119448   17.72
  6  -5224.627433011     -0.941492105     -0.000014235      0.000056935   20.36
  7  -5224.627433558     -0.941492652     -0.000000547      0.000021355   17.36
               --- The Coupled-Cluster iterations have converged ---

----------------------
COUPLED CLUSTER ENERGY
----------------------

E(0)                                       ...  -5223.685940906
E(CORR)                                    ...     -0.941492652
E(TOT)                                     ...  -5224.627433558
Singles Norm <S|S>**1/2                    ...      0.047021678  
T1 diagnostic                              ...      0.006786995  

------------------
LARGEST AMPLITUDES
------------------
  38-> 44  38-> 44       0.034379
  42-> 64  42-> 64       0.030367
  41-> 65  41-> 65       0.029235
  41-> 66  41-> 66       0.029143
  41-> 67  41-> 67       0.024959
  40-> 63  40-> 63       0.024227
  42-> 65  42-> 65       0.022293
  39-> 63  39-> 63       0.022196
  42-> 61  42-> 61       0.021938
  41-> 60  41-> 60       0.019975
  38-> 44  38-> 52       0.019481
  38-> 52  38-> 44       0.019481
  43-> 59  43-> 59       0.019066
  40-> 56  40-> 56       0.018870
  42-> 66  42-> 66       0.018529
  38-> 44  38-> 45       0.017488


        !!!!!!!!!!!!!!!!!!!!!!!!!!!!!!!!!!!!!!!!!!!!!!!!!!!!!!!!!!!!!!!!!!!!!!!!!! 
        !  Warning: Densities are linearized densities !                         !
        !!!!!!!!!!!!!!!!!!!!!!!!!!!!!!!!!!!!!!!!!!!!!!!!!!!!!!!!!!!!!!!!!!!!!!!!!! 

Trace of internal density part =     -0.625414845
Trace of external density part =      0.625414845
----------------------
RHF TRIPLES CORRECTION (Algorithm 1)
----------------------

Multiplier for the singles contribution    ...      1.000000000

10% done
20% done
30% done
40% done
50% done
60% done
70% done
80% done
90% done

Triples Correction (T)                     ...     -0.032415060
Scaling of triples based on CCSD energies (Peterson et al. Molecular Physics 113, 1551 (2015))
E(T*) = f*E(T) where f = E(F12-CCSD)/E(CCSD) 
f = CCSD (with F12)/ CCSD (without F12)    ...      1.000000000
Scaled triples correction (T)              ...     -0.032415060

Final correlation energy                   ...     -0.973907712
E(CCSD)                                    ...  -5224.627433558
E(CCSD(T))                                 ...  -5224.659848618

NORM  =      1.314918461 sqrt=     1.146698941
W(HF) =      0.760503430
------------------------------------------------------------------------------
                           ORCA POPULATION ANALYSIS
------------------------------------------------------------------------------
Input electron density              ... manual_328_complex_sp.mdcip
BaseName (.gbw .S,...)              ... manual_328_complex_sp

                    ********************************
                    * MULLIKEN POPULATION ANALYSIS *
                    ********************************

-----------------------
MULLIKEN ATOMIC CHARGES
-----------------------
   0 C :   -0.385804
   1 C :   -0.166303
   2 Br:   -0.208026
   3 H :    0.141328
   4 H :    0.137279
   5 H :    0.141266
   6 H :    0.160038
   7 H :    0.153362
   8 Br:   -0.973142
Sum of atomic charges:   -1.0000000

--------------------------------
MULLIKEN REDUCED ORBITAL CHARGES
--------------------------------
  0 C s       :     3.216501  s :     3.216501
      pz      :     1.070834  p :     3.063410
      px      :     0.921642
      py      :     1.070934
      dz2     :     0.016919  d :     0.096920
      dxz     :     0.022694
      dyz     :     0.018146
      dx2y2   :     0.017236
      dxy     :     0.021926
      f0      :     0.001362  f :     0.008973
      f+1     :     0.001176
      f-1     :     0.001304
      f+2     :     0.001375
      f-2     :     0.000830
      f+3     :     0.001596
      f-3     :     0.001330
  1 C s       :     3.174380  s :     3.174380
      pz      :     1.062847  p :     2.840594
      px      :     0.927594
      py      :     0.850153
      dz2     :     0.021476  d :     0.140805
      dxz     :     0.030764
      dyz     :     0.025025
      dx2y2   :     0.025721
      dxy     :     0.037819
      f0      :     0.001490  f :     0.010523
      f+1     :     0.001390
      f-1     :     0.001369
      f+2     :     0.001388
      f-2     :     0.001131
      f+3     :     0.001803
      f-3     :     0.001951
  2 Brs       :     7.906757  s :     7.906757
      pz      :     5.908066  p :    17.154056
      px      :     5.776148
      py      :     5.469843
      dz2     :     2.023667  d :    10.126962
      dxz     :     2.020968
      dyz     :     2.026155
      dx2y2   :     2.025579
      dxy     :     2.030593
      f0      :     0.002595  f :     0.020251
      f+1     :     0.002349
      f-1     :     0.002891
      f+2     :     0.002476
      f-2     :     0.002930
      f+3     :     0.003888
      f-3     :     0.003122
  3 H s       :     0.834722  s :     0.834722
      pz      :     0.005717  p :     0.023951
      px      :     0.006961
      py      :     0.011274
  4 H s       :     0.838679  s :     0.838679
      pz      :     0.009017  p :     0.024042
      px      :     0.005760
      py      :     0.009265
  5 H s       :     0.834883  s :     0.834883
      pz      :     0.012140  p :     0.023851
      px      :     0.005894
      py      :     0.005817
  6 H s       :     0.815584  s :     0.815584
      pz      :     0.009016  p :     0.024378
      px      :     0.005972
      py      :     0.009390
  7 H s       :     0.821338  s :     0.821338
      pz      :     0.014268  p :     0.025299
      px      :     0.005688
      py      :     0.005343
  8 Brs       :     7.975456  s :     7.975456
      pz      :     5.957568  p :    17.882448
      px      :     5.961455
      py      :     5.963425
      dz2     :     2.020418  d :    10.101217
      dxz     :     2.020272
      dyz     :     2.020232
      dx2y2   :     2.020144
      dxy     :     2.020151
      f0      :     0.002011  f :     0.014021
      f+1     :     0.002014
      f-1     :     0.002007
      f+2     :     0.002000
      f-2     :     0.002002
      f+3     :     0.001994
      f-3     :     0.001994


                     *******************************
                     * LOEWDIN POPULATION ANALYSIS *
                     *******************************

----------------------
LOEWDIN ATOMIC CHARGES
----------------------
   0 C :   -0.359020
   1 C :   -0.482496
   2 Br:    0.154852
   3 H :    0.133511
   4 H :    0.125527
   5 H :    0.124594
   6 H :    0.132212
   7 H :    0.119148
   8 Br:   -0.948327

-------------------------------
LOEWDIN REDUCED ORBITAL CHARGES
-------------------------------
  0 C s       :     2.839812  s :     2.839812
      pz      :     1.069023  p :     3.178905
      px      :     1.040657
      py      :     1.069225
      dz2     :     0.049275  d :     0.307454
      dxz     :     0.074099
      dyz     :     0.045179
      dx2y2   :     0.060053
      dxy     :     0.078848
      f0      :     0.004409  f :     0.032849
      f+1     :     0.004597
      f-1     :     0.002911
      f+2     :     0.005861
      f-2     :     0.003144
      f+3     :     0.006422
      f-3     :     0.005506
  1 C s       :     2.875112  s :     2.875112
      pz      :     1.085071  p :     3.116436
      px      :     1.064242
      py      :     0.967123
      dz2     :     0.065918  d :     0.449523
      dxz     :     0.087084
      dyz     :     0.075983
      dx2y2   :     0.095170
      dxy     :     0.125368
      f0      :     0.005227  f :     0.041425
      f+1     :     0.004789
      f-1     :     0.003591
      f+2     :     0.006151
      f-2     :     0.004884
      f+3     :     0.007792
      f-3     :     0.008990
  2 Brs       :     7.613148  s :     7.613148
      pz      :     5.851064  p :    17.008606
      px      :     5.709862
      py      :     5.447679
      dz2     :     2.032966  d :    10.196050
      dxz     :     2.025306
      dyz     :     2.041809
      dx2y2   :     2.044931
      dxy     :     2.051038
      f0      :     0.003253  f :     0.027344
      f+1     :     0.002736
      f-1     :     0.003868
      f+2     :     0.003037
      f-2     :     0.004047
      f+3     :     0.005715
      f-3     :     0.004687
  3 H s       :     0.800077  s :     0.800077
      pz      :     0.015529  p :     0.066412
      px      :     0.018169
      py      :     0.032714
  4 H s       :     0.807682  s :     0.807682
      pz      :     0.025700  p :     0.066791
      px      :     0.014835
      py      :     0.026256
  5 H s       :     0.808868  s :     0.808868
      pz      :     0.035304  p :     0.066538
      px      :     0.015170
      py      :     0.016064
  6 H s       :     0.799321  s :     0.799321
      pz      :     0.026518  p :     0.068467
      px      :     0.015440
      py      :     0.026508
  7 H s       :     0.809635  s :     0.809635
      pz      :     0.042029  p :     0.071217
      px      :     0.014928
      py      :     0.014261
  8 Brs       :     7.973709  s :     7.973709
      pz      :     5.936372  p :    17.857916
      px      :     5.959851
      py      :     5.961693
      dz2     :     2.021007  d :    10.102645
      dxz     :     2.020851
      dyz     :     2.020409
      dx2y2   :     2.020167
      dxy     :     2.020211
      f0      :     0.002018  f :     0.014057
      f+1     :     0.002029
      f-1     :     0.002014
      f+2     :     0.002002
      f-2     :     0.002006
      f+3     :     0.001994
      f-3     :     0.001994


------------------
HIRSHFELD ANALYSIS
------------------

Total integrated alpha density =     43.998143322
Total integrated beta density  =     43.998143322

  ATOM     CHARGE      SPIN  
   0 C   -0.074452    0.000000
   1 C    0.003125    0.000000
   2 Br  -0.167440    0.000000
   3 H    0.034592    0.000000
   4 H    0.027012    0.000000
   5 H    0.030708    0.000000
   6 H    0.047982    0.000000
   7 H    0.021138    0.000000
   8 Br  -0.918951    0.000000

  TOTAL  -0.996287    0.000000     64910.6


                      *****************************
                      * MAYER POPULATION ANALYSIS *
                      *****************************

  NA   - Mulliken gross atomic population
  ZA   - Total nuclear charge
  QA   - Mulliken gross atomic charge
  VA   - Mayer's total valence
  BVA  - Mayer's bonded valence
  FA   - Mayer's free valence

  ATOM       NA         ZA         QA         VA         BVA        FA
  0 C      6.3858     6.0000    -0.3858     4.0162     3.6537     0.3625
  1 C      6.1663     6.0000    -0.1663     3.9945     3.6124     0.3822
  2 Br    35.2080    35.0000    -0.2080     1.5798     0.9080     0.6718
  3 H      0.8587     1.0000     0.1413     0.9870     0.9222     0.0647
  4 H      0.8627     1.0000     0.1373     0.9891     0.9250     0.0641
  5 H      0.8587     1.0000     0.1413     0.9780     0.9143     0.0638
  6 H      0.8400     1.0000     0.1600     0.9675     0.9055     0.0620
  7 H      0.8466     1.0000     0.1534     1.0095     0.9448     0.0648
  8 Br    35.9731    35.0000    -0.9731     0.7543     0.0432     0.7111

  Mayer bond orders larger than 0.100000
B(  0-C ,  1-C ) :   0.9380 B(  0-C ,  3-H ) :   0.9078 B(  0-C ,  4-H ) :   0.9183 
B(  0-C ,  5-H ) :   0.9160 B(  1-C ,  2-Br) :   0.8830 B(  1-C ,  6-H ) :   0.9130 
B(  1-C ,  7-H ) :   0.9032 



------------------------------------------------------------------------------- 
                                     TIMINGS                                   
------------------------------------------------------------------------------- 


Total execution time                   ...      291.249 sec

Fock Matrix Formation                  ...        1.922 sec (  0.7%)
Initial Guess                          ...        0.063 sec (  0.0%)
DIIS Solver                            ...       25.501 sec (  8.8%)
State Vector Update                    ...        0.206 sec (  0.1%)
Sigma-vector construction              ...       90.222 sec ( 31.0%)
  <0|H|D>                              ...        0.071 sec (  0.1% of sigma)
  <D|H|D>(0-ext)                       ...        9.913 sec ( 11.0% of sigma)
  <D|H|D>(2-ext Fock)                  ...        0.153 sec (  0.2% of sigma)
  <D|H|D>(2-ext)                       ...       12.159 sec ( 13.5% of sigma)
  <D|H|D>(4-ext)                       ...        8.217 sec (  9.1% of sigma)
  <D|H|D>(4-ext-corr)                  ...        6.682 sec (  7.4% of sigma)
  <S|H|0>                              ...        0.048 sec (  0.1% of sigma)
  <S|H|S>                              ...        0.123 sec (  0.1% of sigma)
  <S|H|D>(1-ext)                       ...        1.276 sec (  1.4% of sigma)
  <D|H|S>(1-ext)                       ...        2.178 sec (  2.4% of sigma)
  <S|H|D>(3-ext)                       ...        6.252 sec (  6.9% of sigma)
  Fock-dressing                        ...       10.464 sec ( 11.6% of sigma)
  (ik|jl)-dressing                     ...       12.442 sec ( 13.8% of sigma)
  (ij|ab),(ia|jb)-dressing             ...       19.378 sec ( 21.5% of sigma)
  Pair energies                        ...        0.079 sec (  0.1% of sigma)
Total Time for computing (T)           ...      143.909 sec ( 49.4% of ALL)
  I/O of integral and amplitudes       ...        8.593 sec (  6.0% of (T))
  N**6 sorting step                    ...       43.075 sec ( 29.9% of (T))
  External N**7 contributions          ...       52.211 sec ( 36.3% of (T))
  Internal N**7 contributions          ...       17.027 sec ( 11.8% of (T))
  N**6 triples energy contributions    ...       23.001 sec ( 16.0% of (T))
One-particle density matrix            ...        0.209 sec (  0.1%)


-------------------------   --------------------
FINAL SINGLE POINT ENERGY     -5224.659848617730
-------------------------   --------------------


                            ***************************************
                            *     ORCA property calculations      *
                            ***************************************

                                    ---------------------
                                    Active property flags
                                    ---------------------
   (+) Dipole Moment


------------------------------------------------------------------------------
                       ORCA ELECTRIC PROPERTIES CALCULATION
------------------------------------------------------------------------------

Dipole Moment Calculation                       ... on
Quadrupole Moment Calculation                   ... off
Polarizability Calculation                      ... off
GBWName                                         ... manual_328_complex_sp.gbw
Electron density file                           ... manual_328_complex_sp.scfp
The origin for moment calculation is the CENTER OF MASS  = (-0.398512, -0.726219  1.506252)

-------------
DIPOLE MOMENT
-------------
                                X             Y             Z
Electronic contribution:      8.04106       3.47558       6.78963
Nuclear contribution   :     -7.49267      -2.12073     -10.75924
                        -----------------------------------------
Total Dipole Moment    :      0.54839       1.35485      -3.96961
                        -----------------------------------------
Magnitude (a.u.)       :      4.23014
Magnitude (Debye)      :     10.75217



--------------------
Rotational spectrum 
--------------------
 
Rotational constants in cm-1:     0.186780     0.015329     0.014431 
Rotational constants in MHz :  5599.537532   459.556750   432.621522 

 Dipole components along the rotational axes: 
x,y,z [a.u.] :    -4.075263    -1.053172    -0.420928 
x,y,z [Debye]:   -10.358495    -2.676950    -1.069915 

 

                           *** MDCI DENSITY ***

------------------------------------------------------------------------------
                       ORCA ELECTRIC PROPERTIES CALCULATION
------------------------------------------------------------------------------

Dipole Moment Calculation                       ... on
Quadrupole Moment Calculation                   ... off
Polarizability Calculation                      ... off
GBWName                                         ... manual_328_complex_sp.gbw
Electron density file                           ... manual_328_complex_sp.mdcip
The origin for moment calculation is the CENTER OF MASS  = (-0.398512, -0.726219  1.506252)

-------------
DIPOLE MOMENT
-------------
                                X             Y             Z
Electronic contribution:      8.11142       3.58257       6.77994
Nuclear contribution   :     -7.49267      -2.12073     -10.75924
                        -----------------------------------------
Total Dipole Moment    :      0.61876       1.46184      -3.97930
                        -----------------------------------------
Magnitude (a.u.)       :      4.28423
Magnitude (Debye)      :     10.88965



--------------------
Rotational spectrum 
--------------------
 
Rotational constants in cm-1:     0.186780     0.015329     0.014431 
Rotational constants in MHz :  5599.537532   459.556750   432.621522 

 Dipole components along the rotational axes: 
x,y,z [a.u.] :    -4.157053    -0.966906    -0.372355 
x,y,z [Debye]:   -10.566390    -2.457679    -0.946451 

 
[1631527323.672639] [comp0801:66724:0]            sys.c:618  UCX  ERROR shmget(size=2097152 flags=0xfb0) for mm_recv_desc failed: Operation not permitted, please check shared memory limits by 'ipcs -l'
[1631527323.678106] [comp0801:66722:0]            sys.c:618  UCX  ERROR shmget(size=2097152 flags=0xfb0) for mm_recv_desc failed: Operation not permitted, please check shared memory limits by 'ipcs -l'
[1631527323.703007] [comp0801:66725:0]            sys.c:618  UCX  ERROR shmget(size=2097152 flags=0xfb0) for mm_recv_desc failed: Operation not permitted, please check shared memory limits by 'ipcs -l'
[1631527323.703193] [comp0801:66723:0]            sys.c:618  UCX  ERROR shmget(size=2097152 flags=0xfb0) for mm_recv_desc failed: Operation not permitted, please check shared memory limits by 'ipcs -l'
[1631527323.711710] [comp0801:66722:0]            sys.c:618  UCX  ERROR shmget(size=2097152 flags=0xb80) for ucp_am_bufs failed: Operation not permitted, please check shared memory limits by 'ipcs -l'
[1631527323.713808] [comp0801:66724:0]            sys.c:618  UCX  ERROR shmget(size=2097152 flags=0xb80) for ucp_am_bufs failed: Operation not permitted, please check shared memory limits by 'ipcs -l'
[1631527323.714164] [comp0801:66723:0]            sys.c:618  UCX  ERROR shmget(size=2097152 flags=0xb80) for ucp_am_bufs failed: Operation not permitted, please check shared memory limits by 'ipcs -l'

Timings for individual modules:

Sum of individual times         ...      313.036 sec (=   5.217 min)
GTO integral calculation        ...        1.427 sec (=   0.024 min)   0.5 %
SCF iterations                  ...       19.019 sec (=   0.317 min)   6.1 %
MDCI module                     ...      292.590 sec (=   4.877 min)  93.5 %
                             ****ORCA TERMINATED NORMALLY****
TOTAL RUN TIME: 0 days 0 hours 5 minutes 20 seconds 476 msec
