
                                 *****************
                                 * O   R   C   A *
                                 *****************

           --- An Ab Initio, DFT and Semiempirical electronic structure package ---

                  #######################################################
                  #                        -***-                        #
                  #          Department of theory and spectroscopy      #
                  #               Directorship: Frank Neese             #
                  #        Max Planck Institute fuer Kohlenforschung    #
                  #                Kaiser Wilhelm Platz 1               #
                  #                 D-45470 Muelheim/Ruhr               #
                  #                      Germany                        #
                  #                                                     #
                  #                  All rights reserved                #
                  #                        -***-                        #
                  #######################################################


                         Program Version 4.2.1 -  RELEASE  -


 With contributions from (in alphabetic order):
   Daniel Aravena         : Magnetic Suceptibility
   Michael Atanasov       : Ab Initio Ligand Field Theory (pilot matlab implementation)
   Alexander A. Auer      : GIAO ZORA, VPT2
   Ute Becker             : Parallelization
   Giovanni Bistoni       : ED, misc. LED, open-shell LED, HFLD
   Martin Brehm           : Molecular dynamics
   Dmytro Bykov           : SCF Hessian
   Vijay G. Chilkuri      : MRCI spin determinant printing, contributions to CSF-ICE
   Dipayan Datta          : RHF DLPNO-CCSD density
   Achintya Kumar Dutta   : EOM-CC, STEOM-CC
   Dmitry Ganyushin       : Spin-Orbit,Spin-Spin,Magnetic field MRCI
   Miquel Garcia          : C-PCM Hessian, Gaussian charge scheme
   Yang Guo               : DLPNO-NEVPT2, CIM, IAO-localization
   Andreas Hansen         : Spin unrestricted coupled pair/coupled cluster methods
   Benjamin Helmich-Paris : CASSCF linear response (MC-RPA)
   Lee Huntington         : MR-EOM, pCC
   Robert Izsak           : Overlap fitted RIJCOSX, COSX-SCS-MP3, EOM
   Christian Kollmar      : KDIIS, OOCD, Brueckner-CCSD(T), CCSD density
   Simone Kossmann        : Meta GGA functionals, TD-DFT gradient, OOMP2, MP2 Hessian
   Martin Krupicka        : AUTO-CI
   Lucas Lang             : DCDCAS
   Dagmar Lenk            : GEPOL surface, SMD
   Dimitrios Liakos       : Extrapolation schemes; Compound Job, initial MDCI parallelization
   Dimitrios Manganas     : Further ROCIS development; embedding schemes
   Dimitrios Pantazis     : SARC Basis sets
   Taras Petrenko         : DFT Hessian,TD-DFT gradient, ASA, ECA, R-Raman, ABS, FL, XAS/XES, NRVS
   Peter Pinski           : DLPNO-MP2, DLPNO-MP2 Gradient
   Christoph Reimann      : Effective Core Potentials
   Marius Retegan         : Local ZFS, SOC
   Christoph Riplinger    : Optimizer, TS searches, QM/MM, DLPNO-CCSD(T), (RO)-DLPNO pert. Triples
   Tobias Risthaus        : Range-separated hybrids, TD-DFT gradient, RPA, STAB
   Michael Roemelt        : Original ROCIS implementation
   Masaaki Saitow         : Open-shell DLPNO-CCSD energy and density
   Barbara Sandhoefer     : DKH picture change effects
   Avijit Sen             : IP-ROCIS
   Kantharuban Sivalingam : CASSCF convergence, NEVPT2, FIC-MRCI
   Bernardo de Souza      : ESD, SOC TD-DFT
   Georgi Stoychev        : AutoAux, RI-MP2 NMR
   Willem Van den Heuvel  : Paramagnetic NMR
   Boris Wezisla          : Elementary symmetry handling
   Frank Wennmohs         : Technical directorship


 We gratefully acknowledge several colleagues who have allowed us to
 interface, adapt or use parts of their codes:
   Stefan Grimme, W. Hujo, H. Kruse,             : VdW corrections, initial TS optimization,
                  C. Bannwarth                     DFT functionals, gCP, sTDA/sTD-DF
   Ed Valeev, F. Pavosevic, A. Kumar             : LibInt (2-el integral package), F12 methods
   Garnet Chan, S. Sharma, J. Yang, R. Olivares  : DMRG
   Ulf Ekstrom                                   : XCFun DFT Library
   Mihaly Kallay                                 : mrcc  (arbitrary order and MRCC methods)
   Andreas Klamt, Michael Diedenhofen            : otool_cosmo (COSMO solvation model)
   Jiri Pittner, Ondrej Demel                    : Mk-CCSD
   Frank Weinhold                                : gennbo (NPA and NBO analysis)
   Christopher J. Cramer and Donald G. Truhlar   : smd solvation model
   Lars Goerigk                                  : TD-DFT with DH, B97 family of functionals
   V. Asgeirsson, H. Jonsson                     : NEB implementation
   FAccTs GmbH                                   : IRC, NEB, NEB-TS, Multilevel, MM, QM/MM, CI optimization
   S Lehtola, MJT Oliveira, MAL Marques          : LibXC Library


 Your calculation uses the libint2 library for the computation of 2-el integrals
 For citations please refer to: http://libint.valeyev.net

 Your ORCA version has been built with support for libXC version: 4.2.3
 For citations please refer to: https://tddft.org/programs/libxc/

 This ORCA versions uses:
   CBLAS   interface :  Fast vector & matrix operations
   LAPACKE interface :  Fast linear algebra routines
   SCALAPACK package :  Parallel linear algebra routines


----- Orbital basis set information -----
Your calculation utilizes the basis: def2-TZVP
   F. Weigend and R. Ahlrichs, Phys. Chem. Chem. Phys. 7, 3297 (2005).

================================================================================
                                        WARNINGS
                       Please study these warnings very carefully!
================================================================================


WARNING: MDCI localization with Augmented Hessian Foster-Boys
  ===> : Switching off randomization!

WARNING: Post HF methods need fully converged wavefunctions
  ===> : Setting SCFConvForced true
         You can overwrite this default with %scf ConvForced false 


INFO   : the flag for use of LIBINT has been found!

================================================================================
                                       INPUT FILE
================================================================================
NAME = manual_332_complex_sp.inp
|  1> ! SP CCSD(T) def2-TZVP CPCM(Acetone)
|  2> %cpcm
|  3> surfacetype vdw_gaussian
|  4> end
|  5> %geom MaxIter 100 end
|  6> %output 
|  7> xyzfile=True 
|  8> end 
|  9> %scf 
| 10> maxiter 250 
| 11> end
| 12> %output
| 13> Print[P_Hirshfeld] = 1
| 14> end
| 15> % maxcore
| 16> 4000
| 17> %pal nprocs 4
| 18> end
| 19> *xyz -1 1
| 20>   C   1.38676343781483     -0.50070692648455     -0.85113703756399
| 21>   C   0.10282325643984     -0.23705841915218     -0.10077833998079
| 22>   C   -0.70069084855389     -1.48001335490332      0.20314542185045
| 23>   Br  -1.01833724084234      1.02272479165688     -1.15434352377750
| 24>   H   1.90940732673292      0.43286533760312     -1.10271707522504
| 25>   H   1.19811626613602     -1.06263863062883     -1.77864885569647
| 26>   H   2.04545600042489     -1.10047801199197     -0.20239551690917
| 27>   H   0.30589884646771      0.32532249216837      0.82077121461565
| 28>   H   -1.62090891524803     -1.24508528817934      0.75621565913002
| 29>   H   -0.08255890290999     -2.13900173320669      0.83410727354168
| 30>   H   -0.96849834964586     -2.01964746467622     -0.71815234927918
| 31>   Br  2.10407912318389     -1.45245279220526      3.13843312929433
| 32> *
| 33> 
| 34>                          ****END OF INPUT****
================================================================================

                       ****************************
                       * Single Point Calculation *
                       ****************************

---------------------------------
CARTESIAN COORDINATES (ANGSTROEM)
---------------------------------
  C      1.386763   -0.500707   -0.851137
  C      0.102823   -0.237058   -0.100778
  C     -0.700691   -1.480013    0.203145
  Br    -1.018337    1.022725   -1.154344
  H      1.909407    0.432865   -1.102717
  H      1.198116   -1.062639   -1.778649
  H      2.045456   -1.100478   -0.202396
  H      0.305899    0.325322    0.820771
  H     -1.620909   -1.245085    0.756216
  H     -0.082559   -2.139002    0.834107
  H     -0.968498   -2.019647   -0.718152
  Br     2.104079   -1.452453    3.138433

----------------------------
CARTESIAN COORDINATES (A.U.)
----------------------------
  NO LB      ZA    FRAG     MASS         X           Y           Z
   0 C     6.0000    0    12.011    2.620603   -0.946199   -1.608416
   1 C     6.0000    0    12.011    0.194308   -0.447975   -0.190443
   2 C     6.0000    0    12.011   -1.324114   -2.796820    0.383889
   3 Br   35.0000    0    79.900   -1.924378    1.932670   -2.181393
   4 H     1.0000    0     1.008    3.608257    0.817997   -2.083833
   5 H     1.0000    0     1.008    2.264112   -2.008096   -3.361159
   6 H     1.0000    0     1.008    3.865352   -2.079602   -0.382472
   7 H     1.0000    0     1.008    0.578065    0.614770    1.551033
   8 H     1.0000    0     1.008   -3.063074   -2.352870    1.429040
   9 H     1.0000    0     1.008   -0.156014   -4.042127    1.576234
  10 H     1.0000    0     1.008   -1.830197   -3.816581   -1.357111
  11 Br   35.0000    0    79.900    3.976133   -2.744738    5.930779

--------------------------------
INTERNAL COORDINATES (ANGSTROEM)
--------------------------------
 C      0   0   0     0.000000000000     0.00000000     0.00000000
 C      1   0   0     1.510314900876     0.00000000     0.00000000
 C      2   1   0     1.510940615060   114.10561510     0.00000000
 Br     2   1   3     1.988480373404   109.06729750   237.67361406
 H      1   2   3     1.099093409245   111.69675530   176.65731007
 H      1   2   3     1.100742098895   111.22655681    54.88155454
 H      1   2   3     1.102028496760   108.09886942   295.61859211
 H      2   1   3     1.098528819039   110.42587800   125.21330721
 H      3   2   1     1.099035565471   111.75575993   179.51925149
 H      3   2   1     1.102027968454   107.98681584    60.85046948
 H      3   2   1     1.100779457094   111.36508051   301.43700438
 Br    10   3   2     3.250023531459   131.07195244    34.37195962

---------------------------
INTERNAL COORDINATES (A.U.)
---------------------------
 C      0   0   0     0.000000000000     0.00000000     0.00000000
 C      1   0   0     2.854081538635     0.00000000     0.00000000
 C      2   1   0     2.855263967082   114.10561510     0.00000000
 Br     2   1   3     3.757683328410   109.06729750   237.67361406
 H      1   2   3     2.076985539072   111.69675530   176.65731007
 H      1   2   3     2.080101110990   111.22655681    54.88155454
 H      1   2   3     2.082532050652   108.09886942   295.61859211
 H      2   1   3     2.075918618204   110.42587800   125.21330721
 H      3   2   1     2.076876230179   111.75575993   179.51925149
 H      3   2   1     2.082531052299   107.98681584    60.85046948
 H      3   2   1     2.080171707754   111.36508051   301.43700438
 Br    10   3   2     6.141654403258   131.07195244    34.37195962

---------------------
BASIS SET INFORMATION
---------------------
There are 3 groups of distinct atoms

 Group   1 Type C   : 11s6p2d1f contracted to 5s3p2d1f pattern {62111/411/11/1}
 Group   2 Type Br  : 17s13p8d1f contracted to 6s5p4d1f pattern {842111/64111/5111/1}
 Group   3 Type H   : 5s1p contracted to 3s1p pattern {311/1}

Atom   0C    basis set group =>   1
Atom   1C    basis set group =>   1
Atom   2C    basis set group =>   1
Atom   3Br   basis set group =>   2
Atom   4H    basis set group =>   3
Atom   5H    basis set group =>   3
Atom   6H    basis set group =>   3
Atom   7H    basis set group =>   3
Atom   8H    basis set group =>   3
Atom   9H    basis set group =>   3
Atom  10H    basis set group =>   3
Atom  11Br   basis set group =>   2
[1631526973.716160] [comp0802:198553:0]            sys.c:618  UCX  ERROR shmget(size=2097152 flags=0xfb0) for mm_recv_desc failed: Operation not permitted, please check shared memory limits by 'ipcs -l'
[1631526973.716285] [comp0802:198547:0]            sys.c:618  UCX  ERROR shmget(size=2097152 flags=0xfb0) for mm_recv_desc failed: Operation not permitted, please check shared memory limits by 'ipcs -l'
[1631526973.716504] [comp0802:198550:0]            sys.c:618  UCX  ERROR shmget(size=2097152 flags=0xfb0) for mm_recv_desc failed: Operation not permitted, please check shared memory limits by 'ipcs -l'
[1631526973.716528] [comp0802:198558:0]            sys.c:618  UCX  ERROR shmget(size=2097152 flags=0xfb0) for mm_recv_desc failed: Operation not permitted, please check shared memory limits by 'ipcs -l'
[1631526973.777192] [comp0802:198553:0]            sys.c:618  UCX  ERROR shmget(size=2097152 flags=0xb80) for ucp_am_bufs failed: Operation not permitted, please check shared memory limits by 'ipcs -l'
[1631526973.777218] [comp0802:198547:0]            sys.c:618  UCX  ERROR shmget(size=2097152 flags=0xb80) for ucp_am_bufs failed: Operation not permitted, please check shared memory limits by 'ipcs -l'
[1631526973.801847] [comp0802:198558:0]            sys.c:618  UCX  ERROR shmget(size=2097152 flags=0xb80) for ucp_am_bufs failed: Operation not permitted, please check shared memory limits by 'ipcs -l'
[1631526973.801846] [comp0802:198550:0]            sys.c:618  UCX  ERROR shmget(size=2097152 flags=0xb80) for ucp_am_bufs failed: Operation not permitted, please check shared memory limits by 'ipcs -l'


           ************************************************************
           *        Program running with 4 parallel MPI-processes     *
           *              working on a common directory               *
           ************************************************************
------------------------------------------------------------------------------
                           ORCA GTO INTEGRAL CALCULATION
------------------------------------------------------------------------------

                         BASIS SET STATISTICS AND STARTUP INFO

 # of primitive gaussian shells          ...  180
 # of primitive gaussian functions       ...  400
 # of contracted shells                  ...   93
 # of contracted basis functions         ...  231
 Highest angular momentum                ...    3
 Maximum contraction depth               ...    8
 Integral package used                   ... LIBINT
 Integral threshhold            Thresh   ...  1.000e-10
 Primitive cut-off              TCut     ...  1.000e-11


------------------------------ INTEGRAL EVALUATION ----------------------------


 * One electron integrals 
 Pre-screening matrix                    ... done
 Shell pair data                         ... done (   0.001 sec)

[1631526976.239796] [comp0802:198612:0]            sys.c:618  UCX  ERROR shmget(size=2097152 flags=0xfb0) for mm_recv_desc failed: Operation not permitted, please check shared memory limits by 'ipcs -l'
[1631526976.249977] [comp0802:198619:0]            sys.c:618  UCX  ERROR shmget(size=2097152 flags=0xfb0) for mm_recv_desc failed: Operation not permitted, please check shared memory limits by 'ipcs -l'
[1631526976.250512] [comp0802:198615:0]            sys.c:618  UCX  ERROR shmget(size=2097152 flags=0xfb0) for mm_recv_desc failed: Operation not permitted, please check shared memory limits by 'ipcs -l'
[1631526976.263385] [comp0802:198613:0]            sys.c:618  UCX  ERROR shmget(size=2097152 flags=0xfb0) for mm_recv_desc failed: Operation not permitted, please check shared memory limits by 'ipcs -l'
[1631526976.304900] [comp0802:198615:0]            sys.c:618  UCX  ERROR shmget(size=2097152 flags=0xb80) for ucp_am_bufs failed: Operation not permitted, please check shared memory limits by 'ipcs -l'
[1631526976.304926] [comp0802:198612:0]            sys.c:618  UCX  ERROR shmget(size=2097152 flags=0xb80) for ucp_am_bufs failed: Operation not permitted, please check shared memory limits by 'ipcs -l'
[1631526976.305887] [comp0802:198613:0]            sys.c:618  UCX  ERROR shmget(size=2097152 flags=0xb80) for ucp_am_bufs failed: Operation not permitted, please check shared memory limits by 'ipcs -l'
[1631526976.305895] [comp0802:198619:0]            sys.c:618  UCX  ERROR shmget(size=2097152 flags=0xb80) for ucp_am_bufs failed: Operation not permitted, please check shared memory limits by 'ipcs -l'


           ************************************************************
           *        Program running with 4 parallel MPI-processes     *
           *              working on a common directory               *
           ************************************************************
-------------------------------------------------------------------------------
                                 ORCA SCF
-------------------------------------------------------------------------------

------------
SCF SETTINGS
------------
Hamiltonian:
 Ab initio Hamiltonian  Method          .... Hartree-Fock(GTOs)


General Settings:
 Integral files         IntName         .... manual_332_complex_sp
 Hartree-Fock type      HFTyp           .... RHF
 Total Charge           Charge          ....   -1
 Multiplicity           Mult            ....    1
 Number of Electrons    NEL             ....   96
 Basis Dimension        Dim             ....  231
 Nuclear Repulsion      ENuc            ....    475.1308755684 Eh

Convergence Acceleration:
 DIIS                   CNVDIIS         .... on
   Start iteration      DIISMaxIt       ....    12
   Startup error        DIISStart       ....  0.200000
   # of expansion vecs  DIISMaxEq       ....     5
   Bias factor          DIISBfac        ....   1.050
   Max. coefficient     DIISMaxC        ....  10.000
 Newton-Raphson         CNVNR           .... off
 SOSCF                  CNVSOSCF        .... on
   Start iteration      SOSCFMaxIt      ....   150
   Startup grad/error   SOSCFStart      ....  0.003300
 Level Shifting         CNVShift        .... on
   Level shift para.    LevelShift      ....    0.2500
   Turn off err/grad.   ShiftErr        ....    0.0010
 Zerner damping         CNVZerner       .... off
 Static damping         CNVDamp         .... on
   Fraction old density DampFac         ....    0.7000
   Max. Damping (<1)    DampMax         ....    0.9800
   Min. Damping (>=0)   DampMin         ....    0.0000
   Turn off err/grad.   DampErr         ....    0.1000
 Fernandez-Rico         CNVRico         .... off

SCF Procedure:
 Maximum # iterations   MaxIter         ....   250
 SCF integral mode      SCFMode         .... Direct
   Integral package                     .... LIBINT
 Reset frequency        DirectResetFreq ....    20
 Integral Threshold     Thresh          ....  1.000e-10 Eh
 Primitive CutOff       TCut            ....  1.000e-11 Eh

Convergence Tolerance:
 Convergence Check Mode ConvCheckMode   .... Total+1el-Energy
 Convergence forced     ConvForced      .... 1
 Energy Change          TolE            ....  1.000e-06 Eh
 1-El. energy change                    ....  1.000e-03 Eh
 Orbital Gradient       TolG            ....  5.000e-05
 Orbital Rotation angle TolX            ....  5.000e-05
 DIIS Error             TolErr          ....  1.000e-06


Diagonalization of the overlap matrix:
Smallest eigenvalue                        ... 3.357e-04
Time for diagonalization                   ...    0.164 sec
Threshold for overlap eigenvalues          ... 1.000e-08
Number of eigenvalues below threshold      ... 0
Time for construction of square roots      ...    0.006 sec
Total time needed                          ...    0.170 sec

-------------------
DFT GRID GENERATION
-------------------

General Integration Accuracy     IntAcc      ...  4.340
Radial Grid Type                 RadialGrid  ... Gauss-Chebyshev
Angular Grid (max. acc.)         AngularGrid ... Lebedev-110
Angular grid pruning method      GridPruning ... 3 (G Style)
Weight generation scheme         WeightScheme... Becke
Basis function cutoff            BFCut       ...    1.0000e-10
Integration weight cutoff        WCut        ...    1.0000e-14
Grids for H and He will be reduced by one unit

# of grid points (after initial pruning)     ...  16306 (   0.0 sec)
# of grid points (after weights+screening)   ...  15508 (   0.0 sec)
nearest neighbour list constructed           ...    0.0 sec
Grid point re-assignment to atoms done       ...    0.0 sec
Grid point division into batches done        ...    0.0 sec
Reduced shell lists constructed in    0.1 sec

Total number of grid points                  ...    15508
Total number of batches                      ...      248
Average number of points per batch           ...       62
Average number of grid points per atom       ...     1292
Average number of shells per batch           ...    64.89 (69.77%)
Average number of basis functions per batch  ...   165.27 (71.55%)
Average number of large shells per batch     ...    53.03 (81.73%)
Average number of large basis fcns per batch ...   133.92 (81.03%)
Maximum spatial batch extension              ...  15.75, 15.33, 22.78 au
Average spatial batch extension              ...   0.72,  0.73,  0.80 au

Time for grid setup =    0.106 sec

------------------------------
INITIAL GUESS: MODEL POTENTIAL
------------------------------
Loading Hartree-Fock densities                     ... done
Calculating cut-offs                               ... done
Setting up the integral package                    ... done
Initializing the effective Hamiltonian             ... done
Starting the Coulomb interaction                   ... done (   0.0 sec)
Reading the grid                                   ... done
Mapping shells                                     ... done
Starting the XC term evaluation                    ... done (   0.0 sec)
Transforming the Hamiltonian                       ... done (   0.0 sec)
Diagonalizing the Hamiltonian                      ... done (   0.0 sec)
Back transforming the eigenvectors                 ... done (   0.0 sec)
Now organizing SCF variables                       ... done
                      ------------------
                      INITIAL GUESS DONE (   0.3 sec)
                      ------------------

--------------------
CPCM SOLVATION MODEL
--------------------
CPCM parameters:
  Epsilon                                         ...      20.7000
  Refrac                                          ...       1.3590
  Rsolv                                           ...       1.3000
  Surface type                                    ... GAUSSIAN VDW
  Epsilon function type                           ...         CPCM
Radii:
 Radius for C  used is    3.8550 Bohr (=   2.0400 Ang.)
 Radius for Br used is    4.1952 Bohr (=   2.2200 Ang.)
 Radius for H  used is    2.4944 Bohr (=   1.3200 Ang.)
Calculating surface                               ...        done! (  0.0s)
GEPOL surface points                              ...          776
GEPOL Volume                                      ...    1049.2484
GEPOL Surface-area                                ...     642.1673
Calculating surface distance matrix               ...        done! (  0.0s)
Performing Cholesky decomposition & store         ...        done! (  0.0s)
Overall time for CPCM initialization              ...                 0.0s
--------------
SCF ITERATIONS
--------------
ITER       Energy         Delta-E        Max-DP      RMS-DP      [F,P]     Damp
               ***  Starting incremental Fock matrix formation  ***
  0  -5262.4324396917   0.000000000000 0.09379615  0.00109332  0.2288324 0.7000
  1  -5262.5353987763  -0.102959084564 0.07636090  0.00092637  0.1676835 0.7000
                               ***Turning on DIIS***
  2  -5262.5998547073  -0.064455930996 0.05321440  0.00066368  0.1223381 0.7000
  3  -5263.3231678317  -0.723313124422 0.11517987  0.00153082  0.0896420 0.0000
  4  -5262.7159333355   0.607234496267 0.00913962  0.00019532  0.0063462 0.0000
                      *** Initiating the SOSCF procedure ***
                           *** Shutting down DIIS ***
                      *** Re-Reading the Fockian *** 
                      *** Removing any level shift *** 
ITER      Energy       Delta-E        Grad      Rot      Max-DP    RMS-DP
  5  -5262.72735226  -0.0114189255  0.002244  0.002244  0.005487  0.000110
               *** Restarting incremental Fock matrix formation ***
  6  -5262.73642286  -0.0090705971  0.001106  0.001869  0.001755  0.000061
  7  -5262.73645514  -0.0000322826  0.000572  0.001897  0.001670  0.000048
  8  -5262.73646458  -0.0000094387  0.000163  0.000239  0.000230  0.000007
  9  -5262.73646499  -0.0000004138  0.000061  0.000062  0.000123  0.000003
 10  -5262.73646507  -0.0000000747  0.000013  0.000045  0.000041  0.000001
                 **** Energy Check signals convergence ****
              ***Rediagonalizing the Fockian in SOSCF/NRSCF***

               *****************************************************
               *                     SUCCESS                       *
               *           SCF CONVERGED AFTER  11 CYCLES          *
               *****************************************************


----------------
TOTAL SCF ENERGY
----------------

Total Energy       :        -5262.73646507 Eh         -143206.33968 eV

Components:
Nuclear Repulsion  :          475.13087557 Eh           12928.96842 eV
Electronic Energy  :        -5737.86734064 Eh         -156135.30810 eV
One Electron Energy:        -8289.51990283 Eh         -225569.30428 eV
Two Electron Energy:         2551.65256218 Eh           69433.99617 eV
CPCM Dielectric    :           -0.09622791 Eh              -2.61849 eV

Virial components:
Potential Energy   :       -10525.22229041 Eh         -286405.85911 eV
Kinetic Energy     :         5262.48582534 Eh          143199.51943 eV
Virial Ratio       :            2.00004763

CPCM Solvation Model Properties:
Surface-charge          :            0.96277324
Charge-correction       :           -0.00516153 Eh              -0.14045 eV
Free-energy (cav+disp)  :            0.00404348 Eh               0.11003 eV
Corrected G(solv)       :        -5262.73758312 Eh         -143206.37011 eV

---------------
SCF CONVERGENCE
---------------

  Last Energy change         ...   -6.0390e-09  Tolerance :   1.0000e-06
  Last MAX-Density change    ...    5.4726e-06  Tolerance :   1.0000e-05
  Last RMS-Density change    ...    1.8425e-07  Tolerance :   1.0000e-06
  Last Orbital Gradient      ...    2.7083e-06  Tolerance :   5.0000e-05
  Last Orbital Rotation      ...    2.6505e-06  Tolerance :   5.0000e-05

             **** THE GBW FILE WAS UPDATED (manual_332_complex_sp.gbw) ****
             **** DENSITY FILE WAS UPDATED (manual_332_complex_sp.scfp) ****
             **** ENERGY FILE WAS UPDATED (manual_332_complex_sp.en.tmp) ****
             **** THE GBW FILE WAS UPDATED (manual_332_complex_sp.gbw) ****
             **** DENSITY FILE WAS UPDATED (manual_332_complex_sp.scfp) ****
----------------
ORBITAL ENERGIES
----------------

  NO   OCC          E(Eh)            E(eV) 
   0   2.0000    -489.996505    -13333.4828 
   1   2.0000    -489.909954    -13331.1276 
   2   2.0000     -65.139181     -1772.5272 
   3   2.0000     -65.053151     -1770.1862 
   4   2.0000     -58.494237     -1591.7091 
   5   2.0000     -58.493124     -1591.6788 
   6   2.0000     -58.493116     -1591.6786 
   7   2.0000     -58.407541     -1589.3500 
   8   2.0000     -58.407538     -1589.3499 
   9   2.0000     -58.407518     -1589.3494 
  10   2.0000     -11.286742      -307.1279 
  11   2.0000     -11.216476      -305.2158 
  12   2.0000     -11.215876      -305.1995 
  13   2.0000      -9.812600      -267.0144 
  14   2.0000      -9.726508      -264.6717 
  15   2.0000      -7.423881      -202.0141 
  16   2.0000      -7.418509      -201.8679 
  17   2.0000      -7.418491      -201.8674 
  18   2.0000      -7.334540      -199.5830 
  19   2.0000      -7.334525      -199.5826 
  20   2.0000      -7.334438      -199.5802 
  21   2.0000      -3.166113       -86.1543 
  22   2.0000      -3.163390       -86.0802 
  23   2.0000      -3.163336       -86.0787 
  24   2.0000      -3.156520       -85.8933 
  25   2.0000      -3.156514       -85.8931 
  26   2.0000      -3.075311       -83.6835 
  27   2.0000      -3.075309       -83.6834 
  28   2.0000      -3.075186       -83.6801 
  29   2.0000      -3.075165       -83.6795 
  30   2.0000      -3.075127       -83.6785 
  31   2.0000      -1.095643       -29.8140 
  32   2.0000      -0.965010       -26.2592 
  33   2.0000      -0.934523       -25.4297 
  34   2.0000      -0.886717       -24.1288 
  35   2.0000      -0.777160       -21.1476 
  36   2.0000      -0.628508       -17.1026 
  37   2.0000      -0.593905       -16.1610 
  38   2.0000      -0.568295       -15.4641 
  39   2.0000      -0.536539       -14.6000 
  40   2.0000      -0.496640       -13.5143 
  41   2.0000      -0.495877       -13.4935 
  42   2.0000      -0.444374       -12.0920 
  43   2.0000      -0.395575       -10.7642 
  44   2.0000      -0.395178       -10.7533 
  45   2.0000      -0.342020        -9.3068 
  46   2.0000      -0.341965        -9.3053 
  47   2.0000      -0.340572        -9.2674 
  48   0.0000       0.148254         4.0342 
  49   0.0000       0.163522         4.4497 
  50   0.0000       0.194864         5.3025 
  51   0.0000       0.197099         5.3633 
  52   0.0000       0.228227         6.2104 
  53   0.0000       0.243186         6.6174 
  54   0.0000       0.251638         6.8474 
  55   0.0000       0.261596         7.1184 
  56   0.0000       0.275716         7.5026 
  57   0.0000       0.303993         8.2721 
  58   0.0000       0.309382         8.4187 
  59   0.0000       0.323140         8.7931 
  60   0.0000       0.343915         9.3584 
  61   0.0000       0.378499        10.2995 
  62   0.0000       0.380644        10.3578 
  63   0.0000       0.393787        10.7155 
  64   0.0000       0.400091        10.8870 
  65   0.0000       0.403905        10.9908 
  66   0.0000       0.424036        11.5386 
  67   0.0000       0.433232        11.7888 
  68   0.0000       0.434471        11.8225 
  69   0.0000       0.436294        11.8722 
  70   0.0000       0.465136        12.6570 
  71   0.0000       0.493127        13.4187 
  72   0.0000       0.497537        13.5387 
  73   0.0000       0.511315        13.9136 
  74   0.0000       0.523494        14.2450 
  75   0.0000       0.532521        14.4906 
  76   0.0000       0.543466        14.7885 
  77   0.0000       0.576105        15.6766 
  78   0.0000       0.584988        15.9183 
  79   0.0000       0.594760        16.1842 
  80   0.0000       0.600058        16.3284 
  81   0.0000       0.616095        16.7648 
  82   0.0000       0.627666        17.0796 
  83   0.0000       0.637858        17.3570 
  84   0.0000       0.645181        17.5563 
  85   0.0000       0.683383        18.5958 
  86   0.0000       0.690039        18.7769 
  87   0.0000       0.699898        19.0452 
  88   0.0000       0.706594        19.2274 
  89   0.0000       0.732069        19.9206 
  90   0.0000       0.760526        20.6950 
  91   0.0000       0.811140        22.0722 
  92   0.0000       0.844233        22.9728 
  93   0.0000       0.907391        24.6914 
  94   0.0000       0.980614        26.6839 
  95   0.0000       0.992575        27.0093 
  96   0.0000       1.021455        27.7952 
  97   0.0000       1.034514        28.1506 
  98   0.0000       1.053529        28.6680 
  99   0.0000       1.149200        31.2713 
 100   0.0000       1.178614        32.0717 
 101   0.0000       1.200738        32.6737 
 102   0.0000       1.227914        33.4132 
 103   0.0000       1.284939        34.9650 
 104   0.0000       1.302426        35.4408 
 105   0.0000       1.308714        35.6119 
 106   0.0000       1.335417        36.3385 
 107   0.0000       1.351506        36.7763 
 108   0.0000       1.384609        37.6771 
 109   0.0000       1.412182        38.4274 
 110   0.0000       1.645534        44.7773 
 111   0.0000       1.653444        44.9925 
 112   0.0000       1.659049        45.1450 
 113   0.0000       1.675820        45.6014 
 114   0.0000       1.677398        45.6443 
 115   0.0000       1.689536        45.9746 
 116   0.0000       1.696340        46.1598 
 117   0.0000       1.708576        46.4927 
 118   0.0000       1.714212        46.6461 
 119   0.0000       1.742625        47.4192 
 120   0.0000       1.759811        47.8869 
 121   0.0000       1.798493        48.9395 
 122   0.0000       1.801134        49.0114 
 123   0.0000       1.809109        49.2284 
 124   0.0000       1.822734        49.5991 
 125   0.0000       1.829324        49.7784 
 126   0.0000       1.840016        50.0694 
 127   0.0000       1.842770        50.1443 
 128   0.0000       1.848088        50.2890 
 129   0.0000       1.859160        50.5903 
 130   0.0000       1.885155        51.2977 
 131   0.0000       1.887122        51.3512 
 132   0.0000       1.894442        51.5504 
 133   0.0000       1.901248        51.7356 
 134   0.0000       1.901366        51.7388 
 135   0.0000       1.904539        51.8252 
 136   0.0000       1.906447        51.8771 
 137   0.0000       1.911639        52.0183 
 138   0.0000       1.924618        52.3715 
 139   0.0000       1.932905        52.5970 
 140   0.0000       1.938856        52.7590 
 141   0.0000       1.945720        52.9457 
 142   0.0000       1.975873        53.7662 
 143   0.0000       1.985104        54.0174 
 144   0.0000       1.989441        54.1354 
 145   0.0000       1.995552        54.3017 
 146   0.0000       2.007588        54.6293 
 147   0.0000       2.034780        55.3692 
 148   0.0000       2.054213        55.8980 
 149   0.0000       2.073023        56.4098 
 150   0.0000       2.127146        57.8826 
 151   0.0000       2.193048        59.6759 
 152   0.0000       2.196120        59.7595 
 153   0.0000       2.262941        61.5778 
 154   0.0000       2.274677        61.8971 
 155   0.0000       2.349819        63.9418 
 156   0.0000       2.414368        65.6983 
 157   0.0000       2.437552        66.3292 
 158   0.0000       2.475532        67.3627 
 159   0.0000       2.500158        68.0328 
 160   0.0000       2.606016        70.9133 
 161   0.0000       2.636033        71.7301 
 162   0.0000       2.665720        72.5379 
 163   0.0000       2.683119        73.0114 
 164   0.0000       2.685097        73.0652 
 165   0.0000       2.702593        73.5413 
 166   0.0000       2.764316        75.2209 
 167   0.0000       2.771607        75.4193 
 168   0.0000       2.794054        76.0301 
 169   0.0000       2.836629        77.1886 
 170   0.0000       2.871400        78.1348 
 171   0.0000       2.889751        78.6341 
 172   0.0000       2.901560        78.9555 
 173   0.0000       2.975125        80.9573 
 174   0.0000       2.994132        81.4745 
 175   0.0000       3.023928        82.2853 
 176   0.0000       3.085873        83.9709 
 177   0.0000       3.122662        84.9720 
 178   0.0000       3.183319        86.6225 
 179   0.0000       3.200724        87.0961 
 180   0.0000       3.293698        89.6261 
 181   0.0000       3.381612        92.0184 
 182   0.0000       3.424037        93.1728 
 183   0.0000       3.442461        93.6741 
 184   0.0000       3.471693        94.4696 
 185   0.0000       3.480912        94.7204 
 186   0.0000       3.569746        97.1377 
 187   0.0000       3.582797        97.4929 
 188   0.0000       3.592745        97.7636 
 189   0.0000       3.638119        98.9982 
 190   0.0000       3.686793       100.3227 
 191   0.0000       3.695935       100.5715 
 192   0.0000       3.736424       101.6733 
 193   0.0000       3.758427       102.2720 
 194   0.0000       3.784472       102.9807 
 195   0.0000       3.894959       105.9872 
 196   0.0000       3.900949       106.1502 
 197   0.0000       3.902840       106.2017 
 198   0.0000       3.960868       107.7807 
 199   0.0000       3.983665       108.4010 
 200   0.0000       4.138221       112.6067 
 201   0.0000       4.214998       114.6959 
 202   0.0000       4.311847       117.3313 
 203   0.0000       4.327046       117.7449 
 204   0.0000       4.377076       119.1063 
 205   0.0000       4.385284       119.3297 
 206   0.0000       4.428210       120.4977 
 207   0.0000       4.509528       122.7105 
 208   0.0000       4.519645       122.9858 
 209   0.0000       4.526462       123.1713 
 210   0.0000       4.531245       123.3015 
 211   0.0000       4.557567       124.0177 
 212   0.0000       4.569643       124.3463 
 213   0.0000       4.592961       124.9808 
 214   0.0000       4.620890       125.7408 
 215   0.0000       4.709812       128.1605 
 216   0.0000       4.725393       128.5845 
 217   0.0000       4.748289       129.2075 
 218   0.0000       4.768959       129.7700 
 219   0.0000       4.770404       129.8093 
 220   0.0000       4.841961       131.7564 
 221   0.0000       4.964086       135.0796 
 222   0.0000       5.009310       136.3103 
 223   0.0000       5.055657       137.5714 
 224   0.0000       5.195209       141.3688 
 225   0.0000       5.222665       142.1159 
 226   0.0000       7.782937       211.7845 
 227   0.0000       8.219129       223.6539 
 228   0.0000      23.363379       635.7499 
 229   0.0000      23.420472       637.3034 
 230   0.0000      23.546433       640.7310 

                    ********************************
                    * MULLIKEN POPULATION ANALYSIS *
                    ********************************

-----------------------
MULLIKEN ATOMIC CHARGES
-----------------------
   0 C :   -0.356358
   1 C :    0.124685
   2 C :   -0.355275
   3 Br:   -0.305416
   4 H :    0.129894
   5 H :    0.119835
   6 H :    0.126382
   7 H :    0.118720
   8 H :    0.128744
   9 H :    0.127028
  10 H :    0.120925
  11 Br:   -0.979164
Sum of atomic charges:   -1.0000000

--------------------------------
MULLIKEN REDUCED ORBITAL CHARGES
--------------------------------
  0 C s       :     3.232285  s :     3.232285
      pz      :     1.027895  p :     3.041061
      px      :     0.950729
      py      :     1.062437
      dz2     :     0.012878  d :     0.078284
      dxz     :     0.016419
      dyz     :     0.018966
      dx2y2   :     0.011320
      dxy     :     0.018702
      f0      :     0.000334  f :     0.004728
      f+1     :     0.000568
      f-1     :     0.000692
      f+2     :     0.000789
      f-2     :     0.001099
      f+3     :     0.000846
      f-3     :     0.000401
  1 C s       :     3.047199  s :     3.047199
      pz      :     0.908701  p :     2.649181
      px      :     0.872863
      py      :     0.867617
      dz2     :     0.023289  d :     0.170288
      dxz     :     0.032528
      dyz     :     0.040519
      dx2y2   :     0.031581
      dxy     :     0.042371
      f0      :     0.000730  f :     0.008647
      f+1     :     0.001197
      f-1     :     0.000998
      f+2     :     0.001191
      f-2     :     0.001689
      f+3     :     0.001239
      f-3     :     0.001603
  2 C s       :     3.230265  s :     3.230265
      pz      :     1.055368  p :     3.042021
      px      :     1.029578
      py      :     0.957075
      dz2     :     0.007214  d :     0.078266
      dxz     :     0.017522
      dyz     :     0.021623
      dx2y2   :     0.013704
      dxy     :     0.018203
      f0      :     0.000537  f :     0.004723
      f+1     :     0.000216
      f-1     :     0.000790
      f+2     :     0.000465
      f-2     :     0.001265
      f+3     :     0.000875
      f-3     :     0.000577
  3 Brs       :     7.920548  s :     7.920548
      pz      :     5.809674  p :    17.335535
      px      :     5.788929
      py      :     5.736932
      dz2     :     2.005273  d :    10.043672
      dxz     :     2.009901
      dyz     :     2.010862
      dx2y2   :     2.004693
      dxy     :     2.012943
      f0      :     0.000681  f :     0.005662
      f+1     :     0.000604
      f-1     :     0.000494
      f+2     :     0.000599
      f-2     :     0.001771
      f+3     :     0.000800
      f-3     :     0.000713
  4 H s       :     0.848448  s :     0.848448
      pz      :     0.004195  p :     0.021658
      px      :     0.006228
      py      :     0.011235
  5 H s       :     0.858744  s :     0.858744
      pz      :     0.011466  p :     0.021421
      px      :     0.003555
      py      :     0.006400
  6 H s       :     0.851913  s :     0.851913
      pz      :     0.007237  p :     0.021704
      px      :     0.007689
      py      :     0.006778
  7 H s       :     0.858016  s :     0.858016
      pz      :     0.012755  p :     0.023264
      px      :     0.003856
      py      :     0.006653
  8 H s       :     0.849607  s :     0.849607
      pz      :     0.006419  p :     0.021649
      px      :     0.011497
      py      :     0.003733
  9 H s       :     0.851169  s :     0.851169
      pz      :     0.007467  p :     0.021803
      px      :     0.006797
      py      :     0.007539
 10 H s       :     0.857668  s :     0.857668
      pz      :     0.010841  p :     0.021407
      px      :     0.004223
      py      :     0.006343
 11 Brs       :     7.990421  s :     7.990421
      pz      :     5.995205  p :    17.988329
      px      :     5.996737
      py      :     5.996387
      dz2     :     2.000124  d :    10.000406
      dxz     :     2.000160
      dyz     :     2.000064
      dx2y2   :     2.000017
      dxy     :     2.000040
      f0      :     0.000002  f :     0.000008
      f+1     :     0.000002
      f-1     :     0.000001
      f+2     :     0.000001
      f-2     :     0.000002
      f+3     :     0.000000
      f-3     :     0.000000


                     *******************************
                     * LOEWDIN POPULATION ANALYSIS *
                     *******************************

----------------------
LOEWDIN ATOMIC CHARGES
----------------------
   0 C :   -0.296558
   1 C :   -0.441665
   2 C :   -0.298157
   3 Br:    0.136694
   4 H :    0.118475
   5 H :    0.119366
   6 H :    0.122009
   7 H :    0.139315
   8 H :    0.118627
   9 H :    0.121103
  10 H :    0.118697
  11 Br:   -0.957906

-------------------------------
LOEWDIN REDUCED ORBITAL CHARGES
-------------------------------
  0 C s       :     2.833764  s :     2.833764
      pz      :     1.056403  p :     3.154130
      px      :     1.034547
      py      :     1.063180
      dz2     :     0.045704  d :     0.283303
      dxz     :     0.063760
      dyz     :     0.058224
      dx2y2   :     0.039427
      dxy     :     0.076187
      f0      :     0.002392  f :     0.025361
      f+1     :     0.004857
      f-1     :     0.002545
      f+2     :     0.003395
      f-2     :     0.004159
      f+3     :     0.004817
      f-3     :     0.003196
  1 C s       :     2.814398  s :     2.814398
      pz      :     0.996368  p :     3.013764
      px      :     1.014613
      py      :     1.002783
      dz2     :     0.081105  d :     0.563674
      dxz     :     0.105725
      dyz     :     0.128996
      dx2y2   :     0.107457
      dxy     :     0.140392
      f0      :     0.004129  f :     0.049829
      f+1     :     0.007571
      f-1     :     0.005781
      f+2     :     0.005842
      f-2     :     0.008700
      f+3     :     0.007121
      f-3     :     0.010685
  2 C s       :     2.833947  s :     2.833947
      pz      :     1.061855  p :     3.155971
      px      :     1.051234
      py      :     1.042881
      dz2     :     0.024124  d :     0.282945
      dxz     :     0.059255
      dyz     :     0.076893
      dx2y2   :     0.057589
      dxy     :     0.065084
      f0      :     0.003196  f :     0.025295
      f+1     :     0.001820
      f-1     :     0.004188
      f+2     :     0.002127
      f-2     :     0.004384
      f+3     :     0.004386
      f-3     :     0.005192
  3 Brs       :     7.614619  s :     7.614619
      pz      :     5.750821  p :    17.132835
      px      :     5.716104
      py      :     5.665910
      dz2     :     2.016181  d :    10.104918
      dxz     :     2.021514
      dyz     :     2.023956
      dx2y2   :     2.017223
      dxy     :     2.026045
      f0      :     0.001094  f :     0.010934
      f+1     :     0.001367
      f-1     :     0.001216
      f+2     :     0.001440
      f-2     :     0.002882
      f+3     :     0.001382
      f-3     :     0.001552
  4 H s       :     0.821922  s :     0.821922
      pz      :     0.012961  p :     0.059604
      px      :     0.016568
      py      :     0.030075
  5 H s       :     0.821253  s :     0.821253
      pz      :     0.029085  p :     0.059381
      px      :     0.011834
      py      :     0.018462
  6 H s       :     0.817827  s :     0.817827
      pz      :     0.020807  p :     0.060164
      px      :     0.020011
      py      :     0.019346
  7 H s       :     0.800798  s :     0.800798
      pz      :     0.031169  p :     0.059888
      px      :     0.011959
      py      :     0.016760
  8 H s       :     0.821750  s :     0.821750
      pz      :     0.018290  p :     0.059622
      px      :     0.029009
      py      :     0.012324
  9 H s       :     0.818442  s :     0.818442
      pz      :     0.020414  p :     0.060454
      px      :     0.020008
      py      :     0.020032
 10 H s       :     0.821924  s :     0.821924
      pz      :     0.029317  p :     0.059379
      px      :     0.012979
      py      :     0.017084
 11 Brs       :     7.989977  s :     7.989977
      pz      :     5.981236  p :    17.966813
      px      :     5.990355
      py      :     5.995222
      dz2     :     2.000312  d :    10.001096
      dxz     :     2.000391
      dyz     :     2.000192
      dx2y2   :     2.000067
      dxy     :     2.000134
      f0      :     0.000005  f :     0.000019
      f+1     :     0.000004
      f-1     :     0.000002
      f+2     :     0.000002
      f-2     :     0.000005
      f+3     :     0.000001
      f-3     :     0.000001


                      *****************************
                      * MAYER POPULATION ANALYSIS *
                      *****************************

  NA   - Mulliken gross atomic population
  ZA   - Total nuclear charge
  QA   - Mulliken gross atomic charge
  VA   - Mayer's total valence
  BVA  - Mayer's bonded valence
  FA   - Mayer's free valence

  ATOM       NA         ZA         QA         VA         BVA        FA
  0 C      6.3564     6.0000    -0.3564     3.9130     3.9130     0.0000
  1 C      5.8753     6.0000     0.1247     3.7921     3.7921    -0.0000
  2 C      6.3553     6.0000    -0.3553     3.9088     3.9088    -0.0000
  3 Br    35.3054    35.0000    -0.3054     0.9300     0.9300    -0.0000
  4 H      0.8701     1.0000     0.1299     0.9719     0.9719     0.0000
  5 H      0.8802     1.0000     0.1198     0.9768     0.9768    -0.0000
  6 H      0.8736     1.0000     0.1264     0.9872     0.9872     0.0000
  7 H      0.8813     1.0000     0.1187     0.9897     0.9897    -0.0000
  8 H      0.8713     1.0000     0.1287     0.9731     0.9731    -0.0000
  9 H      0.8730     1.0000     0.1270     0.9879     0.9879    -0.0000
 10 H      0.8791     1.0000     0.1209     0.9768     0.9768     0.0000
 11 Br    35.9792    35.0000    -0.9792     0.0377     0.0377    -0.0000

  Mayer bond orders larger than 0.100000
B(  0-C ,  1-C ) :   0.9932 B(  0-C ,  4-H ) :   0.9808 B(  0-C ,  5-H ) :   0.9759 
B(  0-C ,  6-H ) :   0.9680 B(  1-C ,  2-C ) :   0.9923 B(  1-C ,  3-Br) :   0.8814 
B(  1-C ,  7-H ) :   0.9677 B(  2-C ,  8-H ) :   0.9812 B(  2-C ,  9-H ) :   0.9670 
B(  2-C , 10-H ) :   0.9756 


------------------
HIRSHFELD ANALYSIS
------------------

Total integrated alpha density =     48.000423847
Total integrated beta density  =     48.000423847

  ATOM     CHARGE      SPIN    
   0 C   -0.056846    0.000000
   1 C    0.071123    0.000000
   2 C   -0.057664    0.000000
   3 Br  -0.211407    0.000000
   4 H    0.026783    0.000000
   5 H    0.026114    0.000000
   6 H    0.020428    0.000000
   7 H    0.032610    0.000000
   8 H    0.026494    0.000000
   9 H    0.018601    0.000000
  10 H    0.025658    0.000000
  11 Br  -0.922743    0.000000

  TOTAL  -1.000848    0.000000

-------
TIMINGS
-------

Total SCF time: 0 days 0 hours 0 min 31 sec 

Total time                  ....      31.469 sec
Sum of individual times     ....      31.052 sec  ( 98.7%)

Fock matrix formation       ....      30.612 sec  ( 97.3%)
Diagonalization             ....       0.046 sec  (  0.1%)
Density matrix formation    ....       0.008 sec  (  0.0%)
Population analysis         ....       0.059 sec  (  0.2%)
Initial guess               ....       0.176 sec  (  0.6%)
Orbital Transformation      ....       0.000 sec  (  0.0%)
Orbital Orthonormalization  ....       0.000 sec  (  0.0%)
DIIS solution               ....       0.017 sec  (  0.1%)
SOSCF solution              ....       0.029 sec  (  0.1%)
[1631527010.086417] [comp0802:198681:0]            sys.c:618  UCX  ERROR shmget(size=2097152 flags=0xfb0) for mm_recv_desc failed: Operation not permitted, please check shared memory limits by 'ipcs -l'
[1631527010.097145] [comp0802:198679:0]            sys.c:618  UCX  ERROR shmget(size=2097152 flags=0xfb0) for mm_recv_desc failed: Operation not permitted, please check shared memory limits by 'ipcs -l'
[1631527010.098816] [comp0802:198682:0]            sys.c:618  UCX  ERROR shmget(size=2097152 flags=0xfb0) for mm_recv_desc failed: Operation not permitted, please check shared memory limits by 'ipcs -l'
[1631527010.104607] [comp0802:198680:0]            sys.c:618  UCX  ERROR shmget(size=2097152 flags=0xfb0) for mm_recv_desc failed: Operation not permitted, please check shared memory limits by 'ipcs -l'
[1631527010.120284] [comp0802:198681:0]            sys.c:618  UCX  ERROR shmget(size=2097152 flags=0xb80) for ucp_am_bufs failed: Operation not permitted, please check shared memory limits by 'ipcs -l'
[1631527010.120308] [comp0802:198679:0]            sys.c:618  UCX  ERROR shmget(size=2097152 flags=0xb80) for ucp_am_bufs failed: Operation not permitted, please check shared memory limits by 'ipcs -l'
[1631527010.121070] [comp0802:198680:0]            sys.c:618  UCX  ERROR shmget(size=2097152 flags=0xb80) for ucp_am_bufs failed: Operation not permitted, please check shared memory limits by 'ipcs -l'


           ************************************************************
           *        Program running with 4 parallel MPI-processes     *
           *              working on a common directory               *
           ************************************************************


------------------------------------------------------------------------------- 
                              ORCA-MATRIX DRIVEN CI                            
------------------------------------------------------------------------------- 

--------------------------------
AUTOMATIC CHOICE OF INCORE LEVEL
--------------------------------

Memory available                           ...   2000.00 MB
Memory needed for S+T                      ...    289.74 MB
Memory needed for J+K                      ...    580.53 MB
Memory needed for DIIS                     ...   4056.33 MB
Memory needed for 3-ext                    ...   1262.43 MB
Memory needed for 4-ext                    ...   4301.61 MB
Memory needed for triples                  ...    233.78 MB
 -> Final InCoreLevel    ... 2
 -> check shows that triples correction can be computed


Wavefunction type
-----------------
Correlation treatment                      ...      CCSD     
Single excitations                         ... ON
Orbital optimization                       ... OFF
Calculation of Z vector                    ... OFF
Calculation of Brueckner orbitals          ... OFF
Perturbative triple excitations            ... ON
Calculation of F12 correction              ... OFF
Frozen core treatment                      ... chemical core (42 el)
Reference Wavefunction                     ... RHF
  Internal Orbitals:    21 ...   47 ( 27 MO's/ 54 electrons)
  Virtual  Orbitals:    48 ...  230 (183 MO's              )
Number of AO's                             ...    231
Number of electrons                        ...     96
Number of correlated electrons             ...     54

Algorithmic settings
--------------------
Integral transformation                    ... AO direct full transformation
K(C) Formation                             ... FULL-MO TRAFO
Maximum number of iterations               ...        50
Convergence tolerance (max. residuum)      ... 2.500e-05
Level shift for amplitude update           ... 2.000e-01
Maximum number of DIIS vectors             ...         7
DIIS turned on at iteration                ...         0
Damping before turning on DIIS             ...     0.500
Damping after turning on DIIS              ...     0.000
Pair specific amplitude update             ... OFF
Natural orbital iterations                 ... OFF
Perturbative natural orbital generation    ... OFF
Printlevel                                 ... 2

Memory handling:
----------------
Maximum memory for working arrays          ...   2000 MB
Data storage in matrix containers          ... UNCOMPRESSED
Data type for integral storage             ... DOUBLE
In-Core Storage of quantities:
   Amplitudes+Sigma Vector      ... YES
   J+K operators                ... YES
   DIIS vectors                 ... NO
   3-external integrals         ... NO
   4-external integrals         ... NO


Initializing the integral package          ... done
Warning: reference  - re-canonicalizations have been set to INT 1 VIRT 1

--------------------------
CLOSED-SHELL FOCK OPERATOR
--------------------------

MDCI_FockCPCM: ediel   =  -0.096227910000
MDCI_FockCPCM: <VCPCM> =  -6.733636635949
<ss|ss>:       508536 b        77321 skpd ( 15.2%)    0.033 s ( 0.000 ms/b)
<ss|sp>:      1099728 b       186703 skpd ( 17.0%)    0.122 s ( 0.000 ms/b)
<ss|sd>:       576576 b       106847 skpd ( 18.5%)    0.074 s ( 0.000 ms/b)
<ss|sf>:       212688 b        34842 skpd ( 16.4%)    0.032 s ( 0.000 ms/b)
<ss|pp>:       316512 b        53568 skpd ( 16.9%)    0.061 s ( 0.000 ms/b)
<ss|pd>:       323568 b        65394 skpd ( 20.2%)    0.075 s ( 0.000 ms/b)
<ss|pf>:       118944 b        21581 skpd ( 18.1%)    0.032 s ( 0.000 ms/b)
<ss|dd>:        91728 b        18405 skpd ( 20.1%)    0.036 s ( 0.000 ms/b)
<ss|df>: [1631527010.755497] [comp0802:198682:0]            sys.c:618  UCX  ERROR shmget(size=2097152 flags=0xb80) for ucp_am_bufs failed: Operation not permitted, please check shared memory limits by 'ipcs -l'
       61488 b        12365 skpd ( 20.1%)    0.027 s ( 0.001 ms/b)
<ss|ff>:        14112 b         2053 skpd ( 14.5%)    0.009 s ( 0.001 ms/b)
<sp|sp>:       595686 b       108086 skpd ( 18.1%)    0.096 s ( 0.000 ms/b)
<sp|sd>:       624052 b       127673 skpd ( 20.5%)    0.137 s ( 0.000 ms/b)
<sp|sf>:       230201 b        42171 skpd ( 18.3%)    0.064 s ( 0.000 ms/b)
<sp|pp>:       342574 b        59867 skpd ( 17.5%)    0.127 s ( 0.000 ms/b)
<sp|pd>:       350211 b        75011 skpd ( 21.4%)    0.176 s ( 0.001 ms/b)
<sp|pf>:       128738 b        24901 skpd ( 19.3%)    0.077 s ( 0.001 ms/b)
<sp|dd>:        99281 b        21728 skpd ( 21.9%)    0.089 s ( 0.001 ms/b)
<sp|df>:        66551 b        14830 skpd ( 22.3%)    0.065 s ( 0.001 ms/b)
<sp|ff>:        15274 b         2514 skpd ( 16.5%)    0.022 s ( 0.002 ms/b)
<sd|sd>:       163878 b        37021 skpd ( 22.6%)    0.062 s ( 0.000 ms/b)
<sd|sf>:       120692 b        25547 skpd ( 21.2%)    0.056 s ( 0.001 ms/b)
<sd|pp>:       179608 b        36016 skpd ( 20.1%)    0.116 s ( 0.001 ms/b)
<sd|pd>:       183612 b        44048 skpd ( 24.0%)    0.165 s ( 0.001 ms/b)
<sd|pf>:        67496 b        15429 skpd ( 22.9%)    0.071 s ( 0.001 ms/b)
<sd|dd>:        52052 b        12440 skpd ( 23.9%)    0.091 s ( 0.002 ms/b)
<sd|df>:        34892 b         8907 skpd ( 25.5%)    0.070 s ( 0.003 ms/b)
<sd|ff>:         8008 b         1635 skpd ( 20.4%)    0.023 s ( 0.004 ms/b)
<sf|sf>:        22366 b         4313 skpd ( 19.3%)    0.016 s ( 0.001 ms/b)
<sf|pp>:        66254 b        12037 skpd ( 18.2%)    0.068 s ( 0.001 ms/b)
<sf|pd>:        67731 b        15384 skpd ( 22.7%)    0.096 s ( 0.002 ms/b)
<sf|pf>:        24898 b         5324 skpd ( 21.4%)    0.044 s ( 0.002 ms/b)
<sf|dd>:        19201 b         4491 skpd ( 23.4%)    0.056 s ( 0.004 ms/b)
<sf|df>:        12871 b         3330 skpd ( 25.9%)    0.044 s ( 0.005 ms/b)
<sf|ff>:         2954 b          600 skpd ( 20.3%)    0.014 s ( 0.006 ms/b)
<pp|pp>:        49455 b         8066 skpd ( 16.3%)    0.049 s ( 0.001 ms/b)
<pp|pd>:       100794 b        20448 skpd ( 20.3%)    0.140 s ( 0.002 ms/b)
<pp|pf>:        37052 b         6755 skpd ( 18.2%)    0.064 s ( 0.002 ms/b)
<pp|dd>:        28574 b         6026 skpd ( 21.1%)    0.076 s ( 0.003 ms/b)
<pp|df>:        19154 b         4106 skpd ( 21.4%)    0.061 s ( 0.004 ms/b)
<pp|ff>:         4396 b          729 skpd ( 16.6%)    0.020 s ( 0.006 ms/b)
<pd|pd>:        51681 b        12703 skpd ( 24.6%)    0.133 s ( 0.003 ms/b)
<pd|pf>:        37878 b         8928 skpd ( 23.6%)    0.109 s ( 0.004 ms/b)
<pd|dd>:        29211 b         7363 skpd ( 25.2%)    0.135 s ( 0.006 ms/b)
<pd|df>:        19581 b         5192 skpd ( 26.5%)    0.110 s ( 0.008 ms/b)
<pd|ff>:         4494 b          977 skpd ( 21.7%)    0.036 s ( 0.010 ms/b)
<pf|pf>:         7021 b         1546 skpd ( 22.0%)    0.031 s ( 0.006 ms/b)
<pf|dd>:        10738 b         2690 skpd ( 25.1%)    0.069 s ( 0.009 ms/b)
<pf|df>:         7198 b         1950 skpd ( 27.1%)    0.059 s ( 0.011 ms/b)
<pf|ff>:         1652 b          355 skpd ( 21.5%)    0.021 s ( 0.016 ms/b)
<dd|dd>:         4186 b         1044 skpd ( 24.9%)    0.046 s ( 0.014 ms/b)
<dd|df>:         5551 b         1459 skpd ( 26.3%)    0.065 s ( 0.016 ms/b)
<dd|ff>:         1274 b          283 skpd ( 22.2%)    0.021 s ( 0.021 ms/b)
<df|df>:         1891 b          590 skpd ( 31.2%)    0.027 s ( 0.021 ms/b)
<df|ff>:          854 b          241 skpd ( 28.2%)    0.019 s ( 0.031 ms/b)
<ff|ff>:          105 b           23 skpd ( 21.9%)    0.005 s ( 0.057 ms/b)
Recanonicalizing the internal orbitals
Recanonicalizing the virtual orbitals
Time needed for Fock operator              ...            3.876 sec
Reference energy                           ...  -5262.736464929
<ss|**>: 
------------------------------
PARTIAL COULOMB TRANSFORMATION
------------------------------

Transformation type                        ... one-operator
Dimension of the basis                     ...  231
Number of internal MOs                     ...  210 (21-230)
Pair cutoff                                ... 0.000e+00 Eh
Number of AO pairs included in the trafo   ... 26744
Total Number of distinct AO pairs          ... 26796
Memory devoted for trafo                   ... 2000.0 MB 
Max. Number of MO pairs treated together   ... 9782      
Max. Number of MOs treated per batch       ...   42      
Number Format for Storage                  ... Double (8 Byte)
AO-integral source                         ... DIRECT
Integral package used                      ... LIBINT

Starting integral evaluation:
     3831408 b        0 skpd     0.796 s (  0.000 ms/b)
<sp|**>:      4146891 b        0 skpd     2.156 s (  0.001 ms/b)
<sd|**>:      2174172 b        0 skpd     1.908 s (  0.001 ms/b)
<sf|**>:       802011 b        0 skpd     1.020 s (  0.001 ms/b)
<pp|**>:      1193514 b        0 skpd     1.786 s (  0.001 ms/b)
<pd|**>:      1220121 b        0 skpd     3.688 s (  0.003 ms/b)
<pf|**>:       448518 b        0 skpd     1.512 s (  0.003 ms/b)
<dd|**>:       345891 b        0 skpd     1.423 s (  0.004 ms/b)
<df|**>:       231861 b        0 skpd     1.361 s (  0.006 ms/b)
<ff|**>:        53214 b        0 skpd     0.598 s (  0.011 ms/b)
Closing buffer AOJ ( 0.96 GB; CompressionRatio= 1.00)
Collecting buffer AOJ 
    ... done with AO integral generation
Number of MO pairs included in the trafo   ... 22155
    ... Now sorting integrals
IBATCH = 1 of  1
Closing buffer JAO ( 1.11 GB; CompressionRatio= 1.00)
Collecting buffer JAO 
TOTAL TIME for half transformation         ...    31.491 sec
AO-integral generation                     ...    10.315 sec
Half transformation                        ...     5.938 sec
J-integral sorting                         ...    14.421 sec

-------------------------- SECOND HALF TRANSFORMATION -------------------------
Formation of (pq|rs)                       ... ok (    22.875 sec)
Integral sorting                           ... ok (   285.276 sec)

------------------
CLOSED SHELL GUESS
------------------

Initial guess performed in     0.166 sec
E(0)                                       ...  -5262.736464929
E(MP2)                                     ...     -1.076036022
Initial E(tot)                             ...  -5263.812500951
<T|T>                                      ...      0.325593023
Number of pairs included                   ... 378
Total number of pairs                      ... 378

------------------------------------------------
                  RHF COUPLED CLUSTER ITERATIONS
------------------------------------------------

Number of amplitudes to be optimized       ... 12663783

Iter       E(tot)           E(Corr)          Delta-E          Residual     Time
  0  -5263.812500951     -1.076036022      0.000000000      0.017263469   25.62
                           *** Turning on DIIS ***
  1  -5263.829672715     -1.093207787     -0.017171764      0.004117410   33.28
  2  -5263.852712875     -1.116247947     -0.023040160      0.001606689   42.72
  3  -5263.858312644     -1.121847715     -0.005599768      0.000732785   41.04
  4  -5263.859141950     -1.122677021     -0.000829306      0.000341373   45.39
  5  -5263.859231424     -1.122766495     -0.000089474      0.000153272   41.43
  6  -5263.859251040     -1.122786111     -0.000019616      0.000078498   37.52
  7  -5263.859252151     -1.122787222     -0.000001110      0.000030598   35.83
  8  -5263.859252736     -1.122787807     -0.000000585      0.000010964   31.58
               --- The Coupled-Cluster iterations have converged ---

----------------------
COUPLED CLUSTER ENERGY
----------------------

E(0)                                       ...  -5262.736464929
E(CORR)                                    ...     -1.122787807
E(TOT)                                     ...  -5263.859252736
Singles Norm <S|S>**1/2                    ...      0.053787617  
T1 diagnostic                              ...      0.007319568  

------------------
LARGEST AMPLITUDES
------------------
  42-> 48  42-> 48       0.036947
  46-> 74  46-> 74       0.029822
  47-> 67  47-> 67       0.023408
  46-> 68  46-> 68       0.022573
  46-> 73  46-> 73       0.021361
  45-> 71  45-> 71       0.019344
  45-> 73  45-> 73       0.019137
  42-> 48  42-> 49       0.018694
  42-> 49  42-> 48       0.018694
  45-> 74  45-> 74       0.018483
  43-> 62  43-> 62       0.017978
  46-> 77  46-> 77       0.017588
  42-> 48  37-> 48       0.016871
  45-> 69  45-> 69       0.016764
  47-> 77  47-> 77       0.016383
  44-> 61  44-> 61       0.015369


        !!!!!!!!!!!!!!!!!!!!!!!!!!!!!!!!!!!!!!!!!!!!!!!!!!!!!!!!!!!!!!!!!!!!!!!!!! 
        !  Warning: Densities are linearized densities !                         !
        !!!!!!!!!!!!!!!!!!!!!!!!!!!!!!!!!!!!!!!!!!!!!!!!!!!!!!!!!!!!!!!!!!!!!!!!!! 

Trace of internal density part =     -0.753995584
Trace of external density part =      0.753995584
----------------------
RHF TRIPLES CORRECTION (Algorithm 1)
----------------------

Multiplier for the singles contribution    ...      1.000000000

10% done
20% done
30% done
40% done
50% done
60% done
70% done
80% done
90% done

Triples Correction (T)                     ...     -0.040164626
Scaling of triples based on CCSD energies (Peterson et al. Molecular Physics 113, 1551 (2015))
E(T*) = f*E(T) where f = E(F12-CCSD)/E(CCSD) 
f = CCSD (with F12)/ CCSD (without F12)    ...      1.000000000
Scaled triples correction (T)              ...     -0.040164626

Final correlation energy                   ...     -1.162952433
E(CCSD)                                    ...  -5263.859252736
E(CCSD(T))                                 ...  -5263.899417362

NORM  =      1.379890900 sqrt=     1.174687575
W(HF) =      0.724694974
------------------------------------------------------------------------------
                           ORCA POPULATION ANALYSIS
------------------------------------------------------------------------------
Input electron density              ... manual_332_complex_sp.mdcip
BaseName (.gbw .S,...)              ... manual_332_complex_sp

                    ********************************
                    * MULLIKEN POPULATION ANALYSIS *
                    ********************************

-----------------------
MULLIKEN ATOMIC CHARGES
-----------------------
   0 C :   -0.407084
   1 C :    0.019176
   2 C :   -0.406332
   3 Br:   -0.232354
   4 H :    0.148517
   5 H :    0.139026
   6 H :    0.143604
   7 H :    0.136353
   8 H :    0.147831
   9 H :    0.143915
  10 H :    0.139656
  11 Br:   -0.972306
Sum of atomic charges:   -1.0000000

--------------------------------
MULLIKEN REDUCED ORBITAL CHARGES
--------------------------------
  0 C s       :     3.239678  s :     3.239678
      pz      :     1.036375  p :     3.063931
      px      :     0.956707
      py      :     1.070849
      dz2     :     0.017890  d :     0.094599
      dxz     :     0.018293
      dyz     :     0.021786
      dx2y2   :     0.014721
      dxy     :     0.021908
      f0      :     0.000934  f :     0.008877
      f+1     :     0.001283
      f-1     :     0.001270
      f+2     :     0.001300
      f-2     :     0.001663
      f+3     :     0.001372
      f-3     :     0.001056
  1 C s       :     3.085736  s :     3.085736
      pz      :     0.929904  p :     2.699568
      px      :     0.881378
      py      :     0.888286
      dz2     :     0.027884  d :     0.182908
      dxz     :     0.033920
      dyz     :     0.042629
      dx2y2   :     0.035889
      dxy     :     0.042587
      f0      :     0.001308  f :     0.012612
      f+1     :     0.001872
      f-1     :     0.001516
      f+2     :     0.001711
      f-2     :     0.002251
      f+3     :     0.001670
      f-3     :     0.002283
  2 C s       :     3.237786  s :     3.237786
      pz      :     1.063898  p :     3.065054
      px      :     1.037374
      py      :     0.963782
      dz2     :     0.011997  d :     0.094620
      dxz     :     0.020526
      dyz     :     0.024168
      dx2y2   :     0.018422
      dxy     :     0.019507
      f0      :     0.001127  f :     0.008873
      f+1     :     0.000906
      f-1     :     0.001340
      f+2     :     0.001121
      f-2     :     0.001798
      f+3     :     0.001310
      f-3     :     0.001270
  3 Brs       :     7.912997  s :     7.912997
      pz      :     5.756096  p :    17.174308
      px      :     5.735506
      py      :     5.682706
      dz2     :     2.023118  d :    10.125143
      dxz     :     2.025889
      dyz     :     2.026175
      dx2y2   :     2.022331
      dxy     :     2.027630
      f0      :     0.002683  f :     0.019906
      f+1     :     0.002645
      f-1     :     0.002559
      f+2     :     0.002660
      f-2     :     0.003757
      f+3     :     0.002838
      f-3     :     0.002765
  4 H s       :     0.827447  s :     0.827447
      pz      :     0.005634  p :     0.024036
      px      :     0.007218
      py      :     0.011185
  5 H s       :     0.837117  s :     0.837117
      pz      :     0.011403  p :     0.023857
      px      :     0.005065
      py      :     0.007388
  6 H s       :     0.832300  s :     0.832300
      pz      :     0.008064  p :     0.024096
      px      :     0.008334
      py      :     0.007697
  7 H s       :     0.838665  s :     0.838665
      pz      :     0.012270  p :     0.024982
      px      :     0.005172
      py      :     0.007540
  8 H s       :     0.828139  s :     0.828139
      pz      :     0.007393  p :     0.024031
      px      :     0.011424
      py      :     0.005213
  9 H s       :     0.831903  s :     0.831903
      pz      :     0.008250  p :     0.024183
      px      :     0.007705
      py      :     0.008227
 10 H s       :     0.836502  s :     0.836502
      pz      :     0.010898  p :     0.023842
      px      :     0.005645
      py      :     0.007299
 11 Brs       :     7.978213  s :     7.978213
      pz      :     5.957021  p :    17.878895
      px      :     5.960715
      py      :     5.961159
      dz2     :     2.020286  d :    10.101191
      dxz     :     2.020301
      dyz     :     2.020241
      dx2y2   :     2.020167
      dxy     :     2.020196
      f0      :     0.002005  f :     0.014006
      f+1     :     0.002005
      f-1     :     0.002001
      f+2     :     0.002001
      f-2     :     0.002002
      f+3     :     0.001996
      f-3     :     0.001996


                     *******************************
                     * LOEWDIN POPULATION ANALYSIS *
                     *******************************

----------------------
LOEWDIN ATOMIC CHARGES
----------------------
   0 C :   -0.328094
   1 C :   -0.476147
   2 C :   -0.329775
   3 Br:    0.168887
   4 H :    0.127586
   5 H :    0.128405
   6 H :    0.131059
   7 H :    0.145574
   8 H :    0.127795
   9 H :    0.130050
  10 H :    0.127657
  11 Br:   -0.952997

-------------------------------
LOEWDIN REDUCED ORBITAL CHARGES
-------------------------------
  0 C s       :     2.836025  s :     2.836025
      pz      :     1.057517  p :     3.156498
      px      :     1.033807
      py      :     1.065174
      dz2     :     0.051048  d :     0.303280
      dxz     :     0.067017
      dyz     :     0.061446
      dx2y2   :     0.044179
      dxy     :     0.079590
      f0      :     0.003300  f :     0.032292
      f+1     :     0.005944
      f-1     :     0.003513
      f+2     :     0.004399
      f-2     :     0.005229
      f+3     :     0.005798
      f-3     :     0.004109
  1 C s       :     2.815785  s :     2.815785
      pz      :     1.002083  p :     3.022119
      px      :     1.013670
      py      :     1.006366
      dz2     :     0.086574  d :     0.581217
      dxz     :     0.108884
      dyz     :     0.130518
      dx2y2   :     0.113189
      dxy     :     0.142052
      f0      :     0.005075  f :     0.057026
      f+1     :     0.008544
      f-1     :     0.006793
      f+2     :     0.006896
      f-2     :     0.009667
      f+3     :     0.008327
      f-3     :     0.011724
  2 C s       :     2.836253  s :     2.836253
      pz      :     1.063975  p :     3.158340
      px      :     1.051760
      py      :     1.042605
      dz2     :     0.029598  d :     0.302958
      dxz     :     0.062606
      dyz     :     0.080014
      dx2y2   :     0.062747
      dxy     :     0.067993
      f0      :     0.004084  f :     0.032224
      f+1     :     0.002724
      f-1     :     0.005187
      f+2     :     0.003105
      f-2     :     0.005486
      f+3     :     0.005383
      f-3     :     0.006255
  3 Brs       :     7.613038  s :     7.613038
      pz      :     5.706664  p :    17.001180
      px      :     5.672216
      py      :     5.622300
      dz2     :     2.033658  d :    10.190614
      dxz     :     2.038732
      dyz     :     2.040933
      dx2y2   :     2.034410
      dxy     :     2.042882
      f0      :     0.003295  f :     0.026281
      f+1     :     0.003429
      f-1     :     0.003320
      f+2     :     0.003529
      f-2     :     0.005406
      f+3     :     0.003612
      f-3     :     0.003688
  4 H s       :     0.805649  s :     0.805649
      pz      :     0.015100  p :     0.066765
      px      :     0.018898
      py      :     0.032767
  5 H s       :     0.804987  s :     0.804987
      pz      :     0.031841  p :     0.066608
      px      :     0.013977
      py      :     0.020790
  6 H s       :     0.801681  s :     0.801681
      pz      :     0.023241  p :     0.067260
      px      :     0.022339
      py      :     0.021679
  7 H s       :     0.787938  s :     0.787938
      pz      :     0.033393  p :     0.066488
      px      :     0.014028
      py      :     0.019067
  8 H s       :     0.805411  s :     0.805411
      pz      :     0.020581  p :     0.066793
      px      :     0.031728
      py      :     0.014484
  9 H s       :     0.802409  s :     0.802409
      pz      :     0.022761  p :     0.067541
      px      :     0.022402
      py      :     0.022378
 10 H s       :     0.805728  s :     0.805728
      pz      :     0.032061  p :     0.066616
      px      :     0.015129
      py      :     0.019426
 11 Brs       :     7.977319  s :     7.977319
      pz      :     5.944211  p :    17.859571
      px      :     5.954919
      py      :     5.960442
      dz2     :     2.020531  d :    10.102071
      dxz     :     2.020576
      dyz     :     2.020404
      dx2y2   :     2.020232
      dxy     :     2.020328
      f0      :     0.002011  f :     0.014035
      f+1     :     0.002012
      f-1     :     0.002004
      f+2     :     0.002004
      f-2     :     0.002009
      f+3     :     0.001998
      f-3     :     0.001997


------------------
HIRSHFELD ANALYSIS
------------------

Total integrated alpha density =     48.000585515
Total integrated beta density  =     48.000585515

  ATOM     CHARGE      SPIN  
   0 C   -0.077945    0.000000
   1 C    0.038878    0.000000
   2 C   -0.078721    0.000000
   3 Br  -0.172953    0.000000
   4 H    0.031740    0.000000
   5 H    0.031156    0.000000
   6 H    0.025217    0.000000
   7 H    0.033615    0.000000
   8 H    0.031504    0.000000
   9 H    0.023256    0.000000
  10 H    0.030657    0.000000
  11 Br  -0.917575    0.000000

  TOTAL  -1.001171    0.000000     65178.9


                      *****************************
                      * MAYER POPULATION ANALYSIS *
                      *****************************

  NA   - Mulliken gross atomic population
  ZA   - Total nuclear charge
  QA   - Mulliken gross atomic charge
  VA   - Mayer's total valence
  BVA  - Mayer's bonded valence
  FA   - Mayer's free valence

  ATOM       NA         ZA         QA         VA         BVA        FA
  0 C      6.4071     6.0000    -0.4071     4.0107     3.6487     0.3620
  1 C      5.9808     6.0000     0.0192     3.9669     3.5820     0.3850
  2 C      6.4063     6.0000    -0.4063     4.0074     3.6449     0.3625
  3 Br    35.2324    35.0000    -0.2324     1.5730     0.8968     0.6763
  4 H      0.8515     1.0000     0.1485     0.9779     0.9146     0.0632
  5 H      0.8610     1.0000     0.1390     0.9832     0.9190     0.0642
  6 H      0.8564     1.0000     0.1436     0.9962     0.9301     0.0660
  7 H      0.8636     1.0000     0.1364     0.9931     0.9294     0.0637
  8 H      0.8522     1.0000     0.1478     0.9787     0.9155     0.0632
  9 H      0.8561     1.0000     0.1439     0.9973     0.9312     0.0661
 10 H      0.8603     1.0000     0.1397     0.9832     0.9191     0.0641
 11 Br    35.9723    35.0000    -0.9723     0.7585     0.0470     0.7115

  Mayer bond orders larger than 0.100000
B(  0-C ,  1-C ) :   0.9302 B(  0-C ,  4-H ) :   0.9195 B(  0-C ,  5-H ) :   0.9150 
B(  0-C ,  6-H ) :   0.9051 B(  1-C ,  2-C ) :   0.9294 B(  1-C ,  3-Br) :   0.8521 
B(  1-C ,  7-H ) :   0.9090 B(  2-C ,  8-H ) :   0.9200 B(  2-C ,  9-H ) :   0.9042 
B(  2-C , 10-H ) :   0.9143 



------------------------------------------------------------------------------- 
                                     TIMINGS                                   
------------------------------------------------------------------------------- 


Total execution time                   ...     1225.500 sec

Fock Matrix Formation                  ...        3.876 sec (  0.3%)
Initial Guess                          ...        0.166 sec (  0.0%)
DIIS Solver                            ...       81.191 sec (  6.6%)
State Vector Update                    ...        0.469 sec (  0.0%)
Sigma-vector construction              ...      252.753 sec ( 20.6%)
  <0|H|D>                              ...        0.176 sec (  0.1% of sigma)
  <D|H|D>(0-ext)                       ...       26.974 sec ( 10.7% of sigma)
  <D|H|D>(2-ext Fock)                  ...        0.427 sec (  0.2% of sigma)
  <D|H|D>(2-ext)                       ...       36.511 sec ( 14.4% of sigma)
  <D|H|D>(4-ext)                       ...       25.614 sec ( 10.1% of sigma)
  <D|H|D>(4-ext-corr)                  ...       19.479 sec (  7.7% of sigma)
  <S|H|0>                              ...        0.099 sec (  0.0% of sigma)
  <S|H|S>                              ...        0.302 sec (  0.1% of sigma)
  <S|H|D>(1-ext)                       ...        3.185 sec (  1.3% of sigma)
  <D|H|S>(1-ext)                       ...        6.071 sec (  2.4% of sigma)
  <S|H|D>(3-ext)                       ...       16.684 sec (  6.6% of sigma)
  Fock-dressing                        ...       23.522 sec (  9.3% of sigma)
  (ik|jl)-dressing                     ...       33.258 sec ( 13.2% of sigma)
  (ij|ab),(ia|jb)-dressing             ...       58.511 sec ( 23.1% of sigma)
  Pair energies                        ...        0.192 sec (  0.1% of sigma)
Total Time for computing (T)           ...      516.084 sec ( 42.1% of ALL)
  I/O of integral and amplitudes       ...       25.181 sec (  4.9% of (T))
  N**6 sorting step                    ...      166.693 sec ( 32.3% of (T))
  External N**7 contributions          ...      201.006 sec ( 38.9% of (T))
  Internal N**7 contributions          ...       52.425 sec ( 10.2% of (T))
  N**6 triples energy contributions    ...       70.774 sec ( 13.7% of (T))
One-particle density matrix            ...        0.483 sec (  0.0%)


-------------------------   --------------------
FINAL SINGLE POINT ENERGY     -5263.899417362016
-------------------------   --------------------


                            ***************************************
                            *     ORCA property calculations      *
                            ***************************************

                                    ---------------------
                                    Active property flags
                                    ---------------------
   (+) Dipole Moment


------------------------------------------------------------------------------
                       ORCA ELECTRIC PROPERTIES CALCULATION
------------------------------------------------------------------------------

Dipole Moment Calculation                       ... on
Quadrupole Moment Calculation                   ... off
Polarizability Calculation                      ... off
GBWName                                         ... manual_332_complex_sp.gbw
Electron density file                           ... manual_332_complex_sp.scfp
The origin for moment calculation is the CENTER OF MASS  = ( 0.922425, -0.631832  1.379727)

-------------
DIPOLE MOMENT
-------------
                                X             Y             Z
Electronic contribution:     -0.59562       7.56798       7.22207
Nuclear contribution   :     -1.60764      -6.41084     -10.96365
                        -----------------------------------------
Total Dipole Moment    :     -2.20325       1.15714      -3.74158
                        -----------------------------------------
Magnitude (a.u.)       :      4.49363
Magnitude (Debye)      :     11.42189



--------------------
Rotational spectrum 
--------------------
 
Rotational constants in cm-1:     0.157075     0.011641     0.011600 
Rotational constants in MHz :  4708.985442   348.985849   347.761557 

 Dipole components along the rotational axes: 
x,y,z [a.u.] :    -4.424207    -0.445180     0.648764 
x,y,z [Debye]:   -11.245440    -1.131558     1.649028 

 

                           *** MDCI DENSITY ***

------------------------------------------------------------------------------
                       ORCA ELECTRIC PROPERTIES CALCULATION
------------------------------------------------------------------------------

Dipole Moment Calculation                       ... on
Quadrupole Moment Calculation                   ... off
Polarizability Calculation                      ... off
GBWName                                         ... manual_332_complex_sp.gbw
Electron density file                           ... manual_332_complex_sp.mdcip
The origin for moment calculation is the CENTER OF MASS  = ( 0.922425, -0.631832  1.379727)

-------------
DIPOLE MOMENT
-------------
                                X             Y             Z
Electronic contribution:     -0.67124       7.66738       7.16699
Nuclear contribution   :     -1.60764      -6.41084     -10.96365
                        -----------------------------------------
Total Dipole Moment    :     -2.27888       1.25654      -3.79665
                        -----------------------------------------
Magnitude (a.u.)       :      4.60291
Magnitude (Debye)      :     11.69966



--------------------
Rotational spectrum 
--------------------
 
Rotational constants in cm-1:     0.157075     0.011641     0.011600 
Rotational constants in MHz :  4708.985442   348.985849   347.761557 

 Dipole components along the rotational axes: 
x,y,z [a.u.] :    -4.545562    -0.409130     0.597701 
x,y,z [Debye]:   -11.553901    -1.039927     1.519236 

 
[1631528238.584142] [comp0802:199249:0]            sys.c:618  UCX  ERROR shmget(size=2097152 flags=0xfb0) for mm_recv_desc failed: Operation not permitted, please check shared memory limits by 'ipcs -l'
[1631528238.594439] [comp0802:199247:0]            sys.c:618  UCX  ERROR shmget(size=2097152 flags=0xfb0) for mm_recv_desc failed: Operation not permitted, please check shared memory limits by 'ipcs -l'
[1631528238.603392] [comp0802:199248:0]            sys.c:618  UCX  ERROR shmget(size=2097152 flags=0xfb0) for mm_recv_desc failed: Operation not permitted, please check shared memory limits by 'ipcs -l'
[1631528238.605969] [comp0802:199250:0]            sys.c:618  UCX  ERROR shmget(size=2097152 flags=0xfb0) for mm_recv_desc failed: Operation not permitted, please check shared memory limits by 'ipcs -l'
[1631528238.623415] [comp0802:199249:0]            sys.c:618  UCX  ERROR shmget(size=2097152 flags=0xb80) for ucp_am_bufs failed: Operation not permitted, please check shared memory limits by 'ipcs -l'
[1631528238.623413] [comp0802:199247:0]            sys.c:618  UCX  ERROR shmget(size=2097152 flags=0xb80) for ucp_am_bufs failed: Operation not permitted, please check shared memory limits by 'ipcs -l'
[1631528238.624179] [comp0802:199250:0]            sys.c:618  UCX  ERROR shmget(size=2097152 flags=0xb80) for ucp_am_bufs failed: Operation not permitted, please check shared memory limits by 'ipcs -l'
[1631528238.626473] [comp0802:199248:0]            sys.c:618  UCX  ERROR shmget(size=2097152 flags=0xb80) for ucp_am_bufs failed: Operation not permitted, please check shared memory limits by 'ipcs -l'

Timings for individual modules:

Sum of individual times         ...     1265.304 sec (=  21.088 min)
GTO integral calculation        ...        2.991 sec (=   0.050 min)   0.2 %
SCF iterations                  ...       33.599 sec (=   0.560 min)   2.7 %
MDCI module                     ...     1228.714 sec (=  20.479 min)  97.1 %
                             ****ORCA TERMINATED NORMALLY****
TOTAL RUN TIME: 0 days 0 hours 21 minutes 7 seconds 489 msec
