
                                 *****************
                                 * O   R   C   A *
                                 *****************

           --- An Ab Initio, DFT and Semiempirical electronic structure package ---

                  #######################################################
                  #                        -***-                        #
                  #          Department of theory and spectroscopy      #
                  #               Directorship: Frank Neese             #
                  #        Max Planck Institute fuer Kohlenforschung    #
                  #                Kaiser Wilhelm Platz 1               #
                  #                 D-45470 Muelheim/Ruhr               #
                  #                      Germany                        #
                  #                                                     #
                  #                  All rights reserved                #
                  #                        -***-                        #
                  #######################################################


                         Program Version 4.2.1 -  RELEASE  -


 With contributions from (in alphabetic order):
   Daniel Aravena         : Magnetic Suceptibility
   Michael Atanasov       : Ab Initio Ligand Field Theory (pilot matlab implementation)
   Alexander A. Auer      : GIAO ZORA, VPT2
   Ute Becker             : Parallelization
   Giovanni Bistoni       : ED, misc. LED, open-shell LED, HFLD
   Martin Brehm           : Molecular dynamics
   Dmytro Bykov           : SCF Hessian
   Vijay G. Chilkuri      : MRCI spin determinant printing, contributions to CSF-ICE
   Dipayan Datta          : RHF DLPNO-CCSD density
   Achintya Kumar Dutta   : EOM-CC, STEOM-CC
   Dmitry Ganyushin       : Spin-Orbit,Spin-Spin,Magnetic field MRCI
   Miquel Garcia          : C-PCM Hessian, Gaussian charge scheme
   Yang Guo               : DLPNO-NEVPT2, CIM, IAO-localization
   Andreas Hansen         : Spin unrestricted coupled pair/coupled cluster methods
   Benjamin Helmich-Paris : CASSCF linear response (MC-RPA)
   Lee Huntington         : MR-EOM, pCC
   Robert Izsak           : Overlap fitted RIJCOSX, COSX-SCS-MP3, EOM
   Christian Kollmar      : KDIIS, OOCD, Brueckner-CCSD(T), CCSD density
   Simone Kossmann        : Meta GGA functionals, TD-DFT gradient, OOMP2, MP2 Hessian
   Martin Krupicka        : AUTO-CI
   Lucas Lang             : DCDCAS
   Dagmar Lenk            : GEPOL surface, SMD
   Dimitrios Liakos       : Extrapolation schemes; Compound Job, initial MDCI parallelization
   Dimitrios Manganas     : Further ROCIS development; embedding schemes
   Dimitrios Pantazis     : SARC Basis sets
   Taras Petrenko         : DFT Hessian,TD-DFT gradient, ASA, ECA, R-Raman, ABS, FL, XAS/XES, NRVS
   Peter Pinski           : DLPNO-MP2, DLPNO-MP2 Gradient
   Christoph Reimann      : Effective Core Potentials
   Marius Retegan         : Local ZFS, SOC
   Christoph Riplinger    : Optimizer, TS searches, QM/MM, DLPNO-CCSD(T), (RO)-DLPNO pert. Triples
   Tobias Risthaus        : Range-separated hybrids, TD-DFT gradient, RPA, STAB
   Michael Roemelt        : Original ROCIS implementation
   Masaaki Saitow         : Open-shell DLPNO-CCSD energy and density
   Barbara Sandhoefer     : DKH picture change effects
   Avijit Sen             : IP-ROCIS
   Kantharuban Sivalingam : CASSCF convergence, NEVPT2, FIC-MRCI
   Bernardo de Souza      : ESD, SOC TD-DFT
   Georgi Stoychev        : AutoAux, RI-MP2 NMR
   Willem Van den Heuvel  : Paramagnetic NMR
   Boris Wezisla          : Elementary symmetry handling
   Frank Wennmohs         : Technical directorship


 We gratefully acknowledge several colleagues who have allowed us to
 interface, adapt or use parts of their codes:
   Stefan Grimme, W. Hujo, H. Kruse,             : VdW corrections, initial TS optimization,
                  C. Bannwarth                     DFT functionals, gCP, sTDA/sTD-DF
   Ed Valeev, F. Pavosevic, A. Kumar             : LibInt (2-el integral package), F12 methods
   Garnet Chan, S. Sharma, J. Yang, R. Olivares  : DMRG
   Ulf Ekstrom                                   : XCFun DFT Library
   Mihaly Kallay                                 : mrcc  (arbitrary order and MRCC methods)
   Andreas Klamt, Michael Diedenhofen            : otool_cosmo (COSMO solvation model)
   Jiri Pittner, Ondrej Demel                    : Mk-CCSD
   Frank Weinhold                                : gennbo (NPA and NBO analysis)
   Christopher J. Cramer and Donald G. Truhlar   : smd solvation model
   Lars Goerigk                                  : TD-DFT with DH, B97 family of functionals
   V. Asgeirsson, H. Jonsson                     : NEB implementation
   FAccTs GmbH                                   : IRC, NEB, NEB-TS, Multilevel, MM, QM/MM, CI optimization
   S Lehtola, MJT Oliveira, MAL Marques          : LibXC Library


 Your calculation uses the libint2 library for the computation of 2-el integrals
 For citations please refer to: http://libint.valeyev.net

 Your ORCA version has been built with support for libXC version: 4.2.3
 For citations please refer to: https://tddft.org/programs/libxc/

 This ORCA versions uses:
   CBLAS   interface :  Fast vector & matrix operations
   LAPACKE interface :  Fast linear algebra routines
   SCALAPACK package :  Parallel linear algebra routines


----- Orbital basis set information -----
Your calculation utilizes the basis: def2-TZVP
   F. Weigend and R. Ahlrichs, Phys. Chem. Chem. Phys. 7, 3297 (2005).

================================================================================
                                        WARNINGS
                       Please study these warnings very carefully!
================================================================================


WARNING: MDCI localization with Augmented Hessian Foster-Boys
  ===> : Switching off randomization!

WARNING: Post HF methods need fully converged wavefunctions
  ===> : Setting SCFConvForced true
         You can overwrite this default with %scf ConvForced false 


INFO   : the flag for use of LIBINT has been found!

================================================================================
                                       INPUT FILE
================================================================================
NAME = manual_reactants_341_sp.inp
|  1> ! SP CCSD(T) def2-TZVP CPCM(DMF)
|  2> %cpcm
|  3> surfacetype vdw_gaussian
|  4> end
|  5> %geom MaxIter 100 end
|  6> %output 
|  7> xyzfile=True 
|  8> end 
|  9> %scf 
| 10> maxiter 250 
| 11> end
| 12> %output
| 13> Print[P_Hirshfeld] = 1
| 14> end
| 15> % maxcore
| 16> 4000
| 17> %pal nprocs 4
| 18> end
| 19> *xyz -1 1
| 20>   C   -0.76144636220915     -0.24444108274403      0.52868478860705
| 21>   Br  0.12778569327444      0.30244774511492     -1.11069496354561
| 22>   H   -1.48829498205331      0.53368692223868      0.78538498314899
| 23>   H   0.03599547827828     -0.35116745853800      1.28480491843462
| 24>   H   -1.26800260496134     -1.19643604958433      0.32818590012696
| 25>   Cl  2.14259277767109     -0.47111007648723      2.48616437322798
| 26> *
| 27> 
| 28>                          ****END OF INPUT****
================================================================================

                       ****************************
                       * Single Point Calculation *
                       ****************************

---------------------------------
CARTESIAN COORDINATES (ANGSTROEM)
---------------------------------
  C     -0.761446   -0.244441    0.528685
  Br     0.127786    0.302448   -1.110695
  H     -1.488295    0.533687    0.785385
  H      0.035995   -0.351167    1.284805
  H     -1.268003   -1.196436    0.328186
  Cl     2.142593   -0.471110    2.486164

----------------------------
CARTESIAN COORDINATES (A.U.)
----------------------------
  NO LB      ZA    FRAG     MASS         X           Y           Z
   0 C     6.0000    0    12.011   -1.438925   -0.461927    0.999069
   1 Br   35.0000    0    79.900    0.241480    0.571543   -2.098909
   2 H     1.0000    0     1.008   -2.812470    1.008522    1.484163
   3 H     1.0000    0     1.008    0.068022   -0.663610    2.427929
   4 H     1.0000    0     1.008   -2.396178   -2.260936    0.620181
   5 Cl   17.0000    0    35.453    4.048914   -0.890269    4.698170

--------------------------------
INTERNAL COORDINATES (ANGSTROEM)
--------------------------------
 C      0   0   0     0.000000000000     0.00000000     0.00000000
 Br     1   0   0     1.943550104912     0.00000000     0.00000000
 H      1   2   0     1.095302286214   107.54182084     0.00000000
 H      1   2   3     1.104093138725   105.92627712   239.15045052
 H      1   2   3     1.096856165704   107.53789477   119.21741160
 Cl     4   1   2     2.428045088756   165.99159821   355.17407182

---------------------------
INTERNAL COORDINATES (A.U.)
---------------------------
 C      0   0   0     0.000000000000     0.00000000     0.00000000
 Br     1   0   0     3.672777425838     0.00000000     0.00000000
 H      1   2   0     2.069821354802   107.54182084     0.00000000
 H      1   2   3     2.086433658533   105.92627712   239.15045052
 H      1   2   3     2.072757761483   107.53789477   119.21741160
 Cl     4   1   2     4.588340258561   165.99159821   355.17407182

---------------------
BASIS SET INFORMATION
---------------------
There are 4 groups of distinct atoms

 Group   1 Type C   : 11s6p2d1f contracted to 5s3p2d1f pattern {62111/411/11/1}
 Group   2 Type Br  : 17s13p8d1f contracted to 6s5p4d1f pattern {842111/64111/5111/1}
 Group   3 Type H   : 5s1p contracted to 3s1p pattern {311/1}
 Group   4 Type Cl  : 14s9p3d1f contracted to 5s5p2d1f pattern {73211/51111/21/1}

Atom   0C    basis set group =>   1
Atom   1Br   basis set group =>   2
Atom   2H    basis set group =>   3
Atom   3H    basis set group =>   3
Atom   4H    basis set group =>   3
Atom   5Cl   basis set group =>   4
[1632393728.065984] [comp0814:114006:0]            sys.c:618  UCX  ERROR shmget(size=2097152 flags=0xfb0) for mm_recv_desc failed: Operation not permitted, please check shared memory limits by 'ipcs -l'
[1632393728.071632] [comp0814:114011:0]            sys.c:618  UCX  ERROR shmget(size=2097152 flags=0xfb0) for mm_recv_desc failed: Operation not permitted, please check shared memory limits by 'ipcs -l'
[1632393728.085335] [comp0814:114008:0]            sys.c:618  UCX  ERROR shmget(size=2097152 flags=0xfb0) for mm_recv_desc failed: Operation not permitted, please check shared memory limits by 'ipcs -l'
[1632393728.088324] [comp0814:114013:0]            sys.c:618  UCX  ERROR shmget(size=2097152 flags=0xfb0) for mm_recv_desc failed: Operation not permitted, please check shared memory limits by 'ipcs -l'
[1632393728.109280] [comp0814:114011:0]            sys.c:618  UCX  ERROR shmget(size=2097152 flags=0xb80) for ucp_am_bufs failed: Operation not permitted, please check shared memory limits by 'ipcs -l'
[1632393728.109334] [comp0814:114006:0]            sys.c:618  UCX  ERROR shmget(size=2097152 flags=0xb80) for ucp_am_bufs failed: Operation not permitted, please check shared memory limits by 'ipcs -l'
[1632393728.110252] [comp0814:114008:0]            sys.c:618  UCX  ERROR shmget(size=2097152 flags=0xb80) for ucp_am_bufs failed: Operation not permitted, please check shared memory limits by 'ipcs -l'


           ************************************************************
           *        Program running with 4 parallel MPI-processes     *
           *              working on a common directory               *
           ************************************************************
------------------------------------------------------------------------------
                           ORCA GTO INTEGRAL CALCULATION
------------------------------------------------------------------------------

                         BASIS SET STATISTICS AND STARTUP INFO

 # of primitive gaussian shells          ...  104
 # of primitive gaussian functions       ...  236
 # of contracted shells                  ...   52
 # of contracted basis functions         ...  134
 Highest angular momentum                ...    3
 Maximum contraction depth               ...    8
 Integral package used                   ... LIBINT
 Integral threshhold            Thresh   ...  1.000e-10
 Primitive cut-off              TCut     ...  1.000e-11


------------------------------ INTEGRAL EVALUATION ----------------------------


 * One electron integrals 
 Pre-screening matrix                    ... done
 Shell pair data                         ... done (   0.000 sec)

[1632393728.362702] [comp0814:114013:0]            sys.c:618  UCX  ERROR shmget(size=2097152 flags=0xb80) for ucp_am_bufs failed: Operation not permitted, please check shared memory limits by 'ipcs -l'
[1632393729.247741] [comp0814:114069:0]            sys.c:618  UCX  ERROR shmget(size=2097152 flags=0xfb0) for mm_recv_desc failed: Operation not permitted, please check shared memory limits by 'ipcs -l'
[1632393729.251751] [comp0814:114067:0]            sys.c:618  UCX  ERROR shmget(size=2097152 flags=0xfb0) for mm_recv_desc failed: Operation not permitted, please check shared memory limits by 'ipcs -l'
[1632393729.268682] [comp0814:114068:0]            sys.c:618  UCX  ERROR shmget(size=2097152 flags=0xfb0) for mm_recv_desc failed: Operation not permitted, please check shared memory limits by 'ipcs -l'
[1632393729.268605] [comp0814:114072:0]            sys.c:618  UCX  ERROR shmget(size=2097152 flags=0xfb0) for mm_recv_desc failed: Operation not permitted, please check shared memory limits by 'ipcs -l'
[1632393729.294040] [comp0814:114069:0]            sys.c:618  UCX  ERROR shmget(size=2097152 flags=0xb80) for ucp_am_bufs failed: Operation not permitted, please check shared memory limits by 'ipcs -l'
[1632393729.294126] [comp0814:114067:0]            sys.c:618  UCX  ERROR shmget(size=2097152 flags=0xb80) for ucp_am_bufs failed: Operation not permitted, please check shared memory limits by 'ipcs -l'
[1632393729.295049] [comp0814:114068:0]            sys.c:618  UCX  ERROR shmget(size=2097152 flags=0xb80) for ucp_am_bufs failed: Operation not permitted, please check shared memory limits by 'ipcs -l'


           ************************************************************
           *        Program running with 4 parallel MPI-processes     *
           *              working on a common directory               *
           ************************************************************
-------------------------------------------------------------------------------
                                 ORCA SCF
-------------------------------------------------------------------------------

[1632393729.298562] [comp0814:114072:0]            sys.c:618  UCX  ERROR shmget(size=2097152 flags=0xb80) for ucp_am_bufs failed: Operation not permitted, please check shared memory limits by 'ipcs -l'
------------
SCF SETTINGS
------------
Hamiltonian:
 Ab initio Hamiltonian  Method          .... Hartree-Fock(GTOs)


General Settings:
 Integral files         IntName         .... manual_reactants_341_sp
 Hartree-Fock type      HFTyp           .... RHF
 Total Charge           Charge          ....   -1
 Multiplicity           Mult            ....    1
 Number of Electrons    NEL             ....   62
 Basis Dimension        Dim             ....  134
 Nuclear Repulsion      ENuc            ....    187.4920679413 Eh

Convergence Acceleration:
 DIIS                   CNVDIIS         .... on
   Start iteration      DIISMaxIt       ....    12
   Startup error        DIISStart       ....  0.200000
   # of expansion vecs  DIISMaxEq       ....     5
   Bias factor          DIISBfac        ....   1.050
   Max. coefficient     DIISMaxC        ....  10.000
 Newton-Raphson         CNVNR           .... off
 SOSCF                  CNVSOSCF        .... on
   Start iteration      SOSCFMaxIt      ....   150
   Startup grad/error   SOSCFStart      ....  0.003300
 Level Shifting         CNVShift        .... on
   Level shift para.    LevelShift      ....    0.2500
   Turn off err/grad.   ShiftErr        ....    0.0010
 Zerner damping         CNVZerner       .... off
 Static damping         CNVDamp         .... on
   Fraction old density DampFac         ....    0.7000
   Max. Damping (<1)    DampMax         ....    0.9800
   Min. Damping (>=0)   DampMin         ....    0.0000
   Turn off err/grad.   DampErr         ....    0.1000
 Fernandez-Rico         CNVRico         .... off

SCF Procedure:
 Maximum # iterations   MaxIter         ....   250
 SCF integral mode      SCFMode         .... Direct
   Integral package                     .... LIBINT
 Reset frequency        DirectResetFreq ....    20
 Integral Threshold     Thresh          ....  1.000e-10 Eh
 Primitive CutOff       TCut            ....  1.000e-11 Eh

Convergence Tolerance:
 Convergence Check Mode ConvCheckMode   .... Total+1el-Energy
 Convergence forced     ConvForced      .... 1
 Energy Change          TolE            ....  1.000e-06 Eh
 1-El. energy change                    ....  1.000e-03 Eh
 Orbital Gradient       TolG            ....  5.000e-05
 Orbital Rotation angle TolX            ....  5.000e-05
 DIIS Error             TolErr          ....  1.000e-06


Diagonalization of the overlap matrix:
Smallest eigenvalue                        ... 1.385e-03
Time for diagonalization                   ...    0.006 sec
Threshold for overlap eigenvalues          ... 1.000e-08
Number of eigenvalues below threshold      ... 0
Time for construction of square roots      ...    0.001 sec
Total time needed                          ...    0.007 sec

-------------------
DFT GRID GENERATION
-------------------

General Integration Accuracy     IntAcc      ...  4.340
Radial Grid Type                 RadialGrid  ... Gauss-Chebyshev
Angular Grid (max. acc.)         AngularGrid ... Lebedev-110
Angular grid pruning method      GridPruning ... 3 (G Style)
Weight generation scheme         WeightScheme... Becke
Basis function cutoff            BFCut       ...    1.0000e-10
Integration weight cutoff        WCut        ...    1.0000e-14
Grids for H and He will be reduced by one unit

# of grid points (after initial pruning)     ...   8772 (   0.0 sec)
# of grid points (after weights+screening)   ...   8608 (   0.0 sec)
nearest neighbour list constructed           ...    0.0 sec
Grid point re-assignment to atoms done       ...    0.0 sec
Grid point division into batches done        ...    0.0 sec
Reduced shell lists constructed in    0.0 sec

Total number of grid points                  ...     8608
Total number of batches                      ...      139
Average number of points per batch           ...       61
Average number of grid points per atom       ...     1435
Average number of shells per batch           ...    34.53 (66.40%)
Average number of basis functions per batch  ...    92.81 (69.26%)
Average number of large shells per batch     ...    29.28 (84.79%)
Average number of large basis fcns per batch ...    78.22 (84.29%)
Maximum spatial batch extension              ...  22.78, 21.67, 13.95 au
Average spatial batch extension              ...   1.12,  1.11,  0.96 au

Time for grid setup =    0.025 sec

------------------------------
INITIAL GUESS: MODEL POTENTIAL
------------------------------
Loading Hartree-Fock densities                     ... done
Calculating cut-offs                               ... done
Setting up the integral package                    ... done
Initializing the effective Hamiltonian             ... done
Starting the Coulomb interaction                   ... done (   0.0 sec)
Reading the grid                                   ... done
Mapping shells                                     ... done
Starting the XC term evaluation                    ... done (   0.0 sec)
Transforming the Hamiltonian                       ... done (   0.0 sec)
Diagonalizing the Hamiltonian                      ... done (   0.0 sec)
Back transforming the eigenvectors                 ... done (   0.0 sec)
Now organizing SCF variables                       ... done
                      ------------------
                      INITIAL GUESS DONE (   0.1 sec)
                      ------------------

--------------------
CPCM SOLVATION MODEL
--------------------
CPCM parameters:
  Epsilon                                         ...      38.3000
  Refrac                                          ...       1.4300
  Rsolv                                           ...       1.3000
  Surface type                                    ... GAUSSIAN VDW
  Epsilon function type                           ...         CPCM
Radii:
 Radius for C  used is    3.8550 Bohr (=   2.0400 Ang.)
 Radius for Br used is    4.1952 Bohr (=   2.2200 Ang.)
 Radius for H  used is    2.4944 Bohr (=   1.3200 Ang.)
 Radius for Cl used is    3.9684 Bohr (=   2.1000 Ang.)
Calculating surface                               ...        done! (  0.0s)
GEPOL surface points                              ...          431
GEPOL Volume                                      ...     717.1180
GEPOL Surface-area                                ...     470.5844
Calculating surface distance matrix               ...        done! (  0.0s)
Performing Cholesky decomposition & store         ...        done! (  0.0s)
Overall time for CPCM initialization              ...                 0.0s
--------------
SCF ITERATIONS
--------------
ITER       Energy         Delta-E        Max-DP      RMS-DP      [F,P]     Damp
               ***  Starting incremental Fock matrix formation  ***
  0  -3071.5517253569   0.000000000000 0.08380042  0.00147226  0.2141448 0.7000
  1  -3071.6083000935  -0.056574736527 0.06228710  0.00121187  0.1612062 0.7000
                               ***Turning on DIIS***
  2  -3071.6438860534  -0.035585959954 0.03916655  0.00083939  0.1208415 0.7000
  3  -3071.9706566471  -0.326770593640 0.08821307  0.00184940  0.0897062 0.0000
  4  -3071.7095034739   0.261153173115 0.00933892  0.00024913  0.0072743 0.0000
  5  -3071.7044323541   0.005071119843 0.00504389  0.00013806  0.0037788 0.0000
                      *** Initiating the SOSCF procedure ***
                           *** Shutting down DIIS ***
                      *** Re-Reading the Fockian *** 
                      *** Removing any level shift *** 
ITER      Energy       Delta-E        Grad      Rot      Max-DP    RMS-DP
  6  -3071.71401914  -0.0095867830  0.001884  0.001884  0.002458  0.000082
               *** Restarting incremental Fock matrix formation ***
  7  -3071.71947283  -0.0054536942  0.000686  0.001079  0.001048  0.000036
  8  -3071.71947724  -0.0000044060  0.000328  0.001077  0.000721  0.000031
  9  -3071.71947874  -0.0000014988  0.000064  0.000064  0.000144  0.000004
 10  -3071.71947877  -0.0000000297  0.000019  0.000015  0.000066  0.000002
                 **** Energy Check signals convergence ****
              ***Rediagonalizing the Fockian in SOSCF/NRSCF***

               *****************************************************
               *                     SUCCESS                       *
               *           SCF CONVERGED AFTER  11 CYCLES          *
               *****************************************************


----------------
TOTAL SCF ENERGY
----------------

Total Energy       :        -3071.71947877 Eh          -83585.73643 eV

Components:
Nuclear Repulsion  :          187.49206794 Eh            5101.91855 eV
Electronic Energy  :        -3259.21154671 Eh          -88687.65498 eV
One Electron Energy:        -4657.65301761 Eh         -126741.18201 eV
Two Electron Energy:         1398.44147090 Eh           38053.52703 eV
CPCM Dielectric    :           -0.11159875 Eh              -3.03676 eV

Virial components:
Potential Energy   :        -6143.30074340 Eh         -167167.71187 eV
Kinetic Energy     :         3071.58126463 Eh           83581.97544 eV
Virial Ratio       :            2.00004500

CPCM Solvation Model Properties:
Surface-charge          :            0.97330681
Charge-correction       :           -0.00393690 Eh              -0.10713 eV
Free-energy (cav+disp)  :            0.00352557 Eh               0.09594 eV
Corrected G(solv)       :        -3071.71989009 Eh          -83585.74763 eV

---------------
SCF CONVERGENCE
---------------

  Last Energy change         ...   -3.2742e-11  Tolerance :   1.0000e-06
  Last MAX-Density change    ...    2.6094e-05  Tolerance :   1.0000e-05
  Last RMS-Density change    ...    5.6312e-07  Tolerance :   1.0000e-06
  Last Orbital Gradient      ...    3.1272e-06  Tolerance :   5.0000e-05
  Last Orbital Rotation      ...    7.4878e-06  Tolerance :   5.0000e-05

             **** THE GBW FILE WAS UPDATED (manual_reactants_341_sp.gbw) ****
             **** DENSITY FILE WAS UPDATED (manual_reactants_341_sp.scfp) ****
             **** ENERGY FILE WAS UPDATED (manual_reactants_341_sp.en.tmp) ****
             **** THE GBW FILE WAS UPDATED (manual_reactants_341_sp.gbw) ****
             **** DENSITY FILE WAS UPDATED (manual_reactants_341_sp.scfp) ****
----------------
ORBITAL ENERGIES
----------------

  NO   OCC          E(Eh)            E(eV) 
   0   2.0000    -490.004336    -13333.6958 
   1   2.0000    -104.710560     -2849.3192 
   2   2.0000     -65.146945     -1772.7385 
   3   2.0000     -58.502088     -1591.9227 
   4   2.0000     -58.500856     -1591.8892 
   5   2.0000     -58.500849     -1591.8890 
   6   2.0000     -11.267536      -306.6052 
   7   2.0000     -10.438134      -284.0361 
   8   2.0000      -9.820562      -267.2311 
   9   2.0000      -7.904674      -215.0971 
  10   2.0000      -7.904654      -215.0966 
  11   2.0000      -7.904651      -215.0965 
  12   2.0000      -7.432233      -202.2414 
  13   2.0000      -7.426288      -202.0796 
  14   2.0000      -7.426251      -202.0786 
  15   2.0000      -3.174654       -86.3867 
  16   2.0000      -3.171609       -86.3039 
  17   2.0000      -3.171572       -86.3029 
  18   2.0000      -3.164026       -86.0975 
  19   2.0000      -3.164025       -86.0975 
  20   2.0000      -1.047863       -28.5138 
  21   2.0000      -0.952643       -25.9227 
  22   2.0000      -0.877225       -23.8705 
  23   2.0000      -0.590338       -16.0639 
  24   2.0000      -0.587041       -15.9742 
  25   2.0000      -0.491825       -13.3833 
  26   2.0000      -0.400174       -10.8893 
  27   2.0000      -0.398733       -10.8501 
  28   2.0000      -0.370426       -10.0798 
  29   2.0000      -0.369597       -10.0572 
  30   2.0000      -0.366050        -9.9607 
  31   0.0000       0.143884         3.9153 
  32   0.0000       0.190063         5.1719 
  33   0.0000       0.227981         6.2037 
  34   0.0000       0.279172         7.5967 
  35   0.0000       0.300231         8.1697 
  36   0.0000       0.329851         8.9757 
  37   0.0000       0.334448         9.1008 
  38   0.0000       0.352772         9.5994 
  39   0.0000       0.386197        10.5090 
  40   0.0000       0.389571        10.6008 
  41   0.0000       0.455288        12.3890 
  42   0.0000       0.469481        12.7752 
  43   0.0000       0.510081        13.8800 
  44   0.0000       0.515477        14.0268 
  45   0.0000       0.524338        14.2680 
  46   0.0000       0.569707        15.5025 
  47   0.0000       0.573861        15.6155 
  48   0.0000       0.585480        15.9317 
  49   0.0000       0.640914        17.4402 
  50   0.0000       0.652452        17.7541 
  51   0.0000       0.673219        18.3192 
  52   0.0000       0.698693        19.0124 
  53   0.0000       0.721524        19.6337 
  54   0.0000       0.722415        19.6579 
  55   0.0000       0.740370        20.1465 
  56   0.0000       0.762243        20.7417 
  57   0.0000       0.801769        21.8172 
  58   0.0000       0.975966        26.5574 
  59   0.0000       0.992505        27.0074 
  60   0.0000       1.040150        28.3039 
  61   0.0000       1.119897        30.4740 
  62   0.0000       1.126484        30.6532 
  63   0.0000       1.180724        32.1291 
  64   0.0000       1.199998        32.6536 
  65   0.0000       1.564231        42.5649 
  66   0.0000       1.572346        42.7857 
  67   0.0000       1.615147        43.9504 
  68   0.0000       1.622271        44.1442 
  69   0.0000       1.641643        44.6714 
  70   0.0000       1.720768        46.8245 
  71   0.0000       1.732867        47.1537 
  72   0.0000       1.737239        47.2727 
  73   0.0000       1.773564        48.2611 
  74   0.0000       1.829503        49.7833 
  75   0.0000       1.831626        49.8411 
  76   0.0000       1.868812        50.8530 
  77   0.0000       1.870462        50.8978 
  78   0.0000       1.900605        51.7181 
  79   0.0000       1.904358        51.8202 
  80   0.0000       1.912534        52.0427 
  81   0.0000       1.939399        52.7737 
  82   0.0000       1.956811        53.2475 
  83   0.0000       1.987074        54.0710 
  84   0.0000       2.176084        59.2143 
  85   0.0000       2.186068        59.4859 
  86   0.0000       2.187818        59.5335 
  87   0.0000       2.196751        59.7766 
  88   0.0000       2.207765        60.0763 
  89   0.0000       2.244580        61.0781 
  90   0.0000       2.332749        63.4773 
  91   0.0000       2.342016        63.7295 
  92   0.0000       2.383581        64.8605 
  93   0.0000       2.502523        68.0971 
  94   0.0000       2.507229        68.2252 
  95   0.0000       2.507291        68.2269 
  96   0.0000       2.507563        68.2343 
  97   0.0000       2.507652        68.2367 
  98   0.0000       2.509866        68.2969 
  99   0.0000       2.542869        69.1950 
 100   0.0000       2.563651        69.7605 
 101   0.0000       2.631503        71.6068 
 102   0.0000       2.634034        71.6757 
 103   0.0000       2.646919        72.0263 
 104   0.0000       2.671955        72.7076 
 105   0.0000       2.739483        74.5451 
 106   0.0000       2.768592        75.3372 
 107   0.0000       2.846183        77.4486 
 108   0.0000       2.936643        79.9101 
 109   0.0000       3.019078        82.1533 
 110   0.0000       3.118055        84.8466 
 111   0.0000       3.387976        92.1915 
 112   0.0000       3.400061        92.5204 
 113   0.0000       3.596538        97.8668 
 114   0.0000       3.602757        98.0360 
 115   0.0000       3.689883       100.4068 
 116   0.0000       3.710322       100.9630 
 117   0.0000       3.812281       103.7374 
 118   0.0000       3.831348       104.2563 
 119   0.0000       3.956805       107.6701 
 120   0.0000       4.453825       121.1947 
 121   0.0000       4.465541       121.5136 
 122   0.0000       4.516509       122.9004 
 123   0.0000       4.519429       122.9799 
 124   0.0000       4.608465       125.4027 
 125   0.0000       4.612631       125.5161 
 126   0.0000       4.791848       130.3928 
 127   0.0000       4.949762       134.6899 
 128   0.0000       8.135206       221.3702 
 129   0.0000      11.570024       314.8364 
 130   0.0000      11.575177       314.9766 
 131   0.0000      11.608097       315.8724 
 132   0.0000      23.154932       630.0777 
 133   0.0000      25.005722       680.4403 

                    ********************************
                    * MULLIKEN POPULATION ANALYSIS *
                    ********************************

-----------------------
MULLIKEN ATOMIC CHARGES
-----------------------
   0 C :   -0.269827
   1 Br:   -0.235212
   2 H :    0.154591
   3 H :    0.159521
   4 H :    0.153681
   5 Cl:   -0.962754
Sum of atomic charges:   -1.0000000

--------------------------------
MULLIKEN REDUCED ORBITAL CHARGES
--------------------------------
  0 C s       :     3.220272  s :     3.220272
      pz      :     0.857450  p :     2.960314
      px      :     1.036430
      py      :     1.066434
      dz2     :     0.019955  d :     0.084742
      dxz     :     0.024615
      dyz     :     0.012207
      dx2y2   :     0.008397
      dxy     :     0.019568
      f0      :     0.000538  f :     0.004499
      f+1     :     0.001204
      f-1     :     0.000486
      f+2     :     0.000556
      f-2     :     0.000683
      f+3     :     0.000886
      f-3     :     0.000144
  1 Brs       :     7.906158  s :     7.906158
      pz      :     5.499212  p :    17.273172
      px      :     5.840764
      py      :     5.933196
      dz2     :     2.015259  d :    10.049292
      dxz     :     2.017814
      dyz     :     2.009396
      dx2y2   :     2.002353
      dxy     :     2.004470
      f0      :     0.001221  f :     0.006590
      f+1     :     0.002132
      f-1     :     0.001090
      f+2     :     0.000750
      f-2     :     0.001137
      f+3     :     0.000128
      f-3     :     0.000132
  2 H s       :     0.823431  s :     0.823431
      pz      :     0.003922  p :     0.021978
      px      :     0.008755
      py      :     0.009300
  3 H s       :     0.814994  s :     0.814994
      pz      :     0.010012  p :     0.025486
      px      :     0.012011
      py      :     0.003462
  4 H s       :     0.824386  s :     0.824386
      pz      :     0.003448  p :     0.021933
      px      :     0.006047
      py      :     0.012439
  5 Cls       :     5.980192  s :     5.980192
      pz      :     3.997050  p :    11.981940
      px      :     3.987223
      py      :     3.997667
      dz2     :     0.000053  d :     0.000602
      dxz     :     0.000296
      dyz     :     0.000008
      dx2y2   :     0.000235
      dxy     :     0.000010
      f0      :     0.000004  f :     0.000020
      f+1     :     0.000001
      f-1     :     0.000000
      f+2     :     0.000009
      f-2     :     0.000000
      f+3     :     0.000004
      f-3     :     0.000000


                     *******************************
                     * LOEWDIN POPULATION ANALYSIS *
                     *******************************

----------------------
LOEWDIN ATOMIC CHARGES
----------------------
   0 C :   -0.484176
   1 Br:    0.113498
   2 H :    0.107955
   3 H :    0.085490
   4 H :    0.108361
   5 Cl:   -0.931128

-------------------------------
LOEWDIN REDUCED ORBITAL CHARGES
-------------------------------
  0 C s       :     2.948718  s :     2.948718
      pz      :     1.012689  p :     3.234862
      px      :     1.108098
      py      :     1.114074
      dz2     :     0.070684  d :     0.280505
      dxz     :     0.082636
      dyz     :     0.043500
      dx2y2   :     0.024153
      dxy     :     0.059533
      f0      :     0.003404  f :     0.020091
      f+1     :     0.003612
      f-1     :     0.003644
      f+2     :     0.003625
      f-2     :     0.002103
      f+3     :     0.002596
      f-3     :     0.001106
  1 Brs       :     7.612939  s :     7.612939
      pz      :     5.473941  p :    17.138008
      px      :     5.789611
      py      :     5.874456
      dz2     :     2.039154  d :    10.121971
      dxz     :     2.038237
      dyz     :     2.025563
      dx2y2   :     2.007850
      dxy     :     2.011166
      f0      :     0.003029  f :     0.013583
      f+1     :     0.003657
      f-1     :     0.002239
      f+2     :     0.001846
      f-2     :     0.002224
      f+3     :     0.000303
      f-3     :     0.000285
  2 H s       :     0.827082  s :     0.827082
      pz      :     0.012467  p :     0.064964
      px      :     0.025653
      py      :     0.026843
  3 H s       :     0.839519  s :     0.839519
      pz      :     0.029023  p :     0.074992
      px      :     0.034142
      py      :     0.011827
  4 H s       :     0.826946  s :     0.826946
      pz      :     0.011171  p :     0.064692
      px      :     0.018642
      py      :     0.034879
  5 Cls       :     5.976083  s :     5.976083
      pz      :     3.987280  p :    11.953313
      px      :     3.968259
      py      :     3.997773
      dz2     :     0.000124  d :     0.001667
      dxz     :     0.000821
      dyz     :     0.000010
      dx2y2   :     0.000697
      dxy     :     0.000015
      f0      :     0.000015  f :     0.000065
      f+1     :     0.000002
      f-1     :     0.000000
      f+2     :     0.000031
      f-2     :     0.000001
      f+3     :     0.000016
      f-3     :     0.000001


                      *****************************
                      * MAYER POPULATION ANALYSIS *
                      *****************************

  NA   - Mulliken gross atomic population
  ZA   - Total nuclear charge
  QA   - Mulliken gross atomic charge
  VA   - Mayer's total valence
  BVA  - Mayer's bonded valence
  FA   - Mayer's free valence

  ATOM       NA         ZA         QA         VA         BVA        FA
  0 C      6.2698     6.0000    -0.2698     3.8346     3.8346    -0.0000
  1 Br    35.2352    35.0000    -0.2352     0.9688     0.9688    -0.0000
  2 H      0.8454     1.0000     0.1546     0.9660     0.9660     0.0000
  3 H      0.8405     1.0000     0.1595     1.0184     1.0184     0.0000
  4 H      0.8463     1.0000     0.1537     0.9665     0.9665    -0.0000
  5 Cl    17.9628    17.0000    -0.9628     0.0599     0.0599    -0.0000

  Mayer bond orders larger than 0.100000
B(  0-C ,  1-Br) :   0.9610 B(  0-C ,  2-H ) :   0.9699 B(  0-C ,  3-H ) :   0.9495 
B(  0-C ,  4-H ) :   0.9704 


------------------
HIRSHFELD ANALYSIS
------------------

Total integrated alpha density =     31.001680042
Total integrated beta density  =     31.001680042

  ATOM     CHARGE      SPIN    
   0 C   -0.004774    0.000000
   1 Br  -0.197469    0.000000
   2 H    0.046950    0.000000
   3 H    0.009186    0.000000
   4 H    0.046981    0.000000
   5 Cl  -0.904234    0.000000

  TOTAL  -1.003360    0.000000

-------
TIMINGS
-------

Total SCF time: 0 days 0 hours 0 min 6 sec 

Total time                  ....       6.973 sec
Sum of individual times     ....       6.799 sec  ( 97.5%)

Fock matrix formation       ....       6.640 sec  ( 95.2%)
Diagonalization             ....       0.013 sec  (  0.2%)
Density matrix formation    ....       0.002 sec  (  0.0%)
Population analysis         ....       0.016 sec  (  0.2%)
Initial guess               ....       0.091 sec  (  1.3%)
Orbital Transformation      ....       0.000 sec  (  0.0%)
Orbital Orthonormalization  ....       0.000 sec  (  0.0%)
DIIS solution               ....       0.005 sec  (  0.1%)
SOSCF solution              ....       0.005 sec  (  0.1%)
[1632393739.328834] [comp0814:114125:0]            sys.c:618  UCX  ERROR shmget(size=2097152 flags=0xfb0) for mm_recv_desc failed: Operation not permitted, please check shared memory limits by 'ipcs -l'
[1632393739.330196] [comp0814:114122:0]            sys.c:618  UCX  ERROR shmget(size=2097152 flags=0xfb0) for mm_recv_desc failed: Operation not permitted, please check shared memory limits by 'ipcs -l'
[1632393739.331589] [comp0814:114124:0]            sys.c:618  UCX  ERROR shmget(size=2097152 flags=0xfb0) for mm_recv_desc failed: Operation not permitted, please check shared memory limits by 'ipcs -l'
[1632393739.341062] [comp0814:114123:0]            sys.c:618  UCX  ERROR shmget(size=2097152 flags=0xfb0) for mm_recv_desc failed: Operation not permitted, please check shared memory limits by 'ipcs -l'
[1632393739.350290] [comp0814:114124:0]            sys.c:618  UCX  ERROR shmget(size=2097152 flags=0xb80) for ucp_am_bufs failed: Operation not permitted, please check shared memory limits by 'ipcs -l'
[1632393739.350301] [comp0814:114122:0]            sys.c:618  UCX  ERROR shmget(size=2097152 flags=0xb80) for ucp_am_bufs failed: Operation not permitted, please check shared memory limits by 'ipcs -l'
[1632393739.350561] [comp0814:114123:0]            sys.c:618  UCX  ERROR shmget(size=2097152 flags=0xb80) for ucp_am_bufs failed: Operation not permitted, please check shared memory limits by 'ipcs -l'


           ************************************************************
           *        Program running with 4 parallel MPI-processes     *
           *              working on a common directory               *
           ************************************************************


------------------------------------------------------------------------------- 
                              ORCA-MATRIX DRIVEN CI                            
------------------------------------------------------------------------------- 

--------------------------------
AUTOMATIC CHOICE OF INCORE LEVEL
--------------------------------

Memory available                           ...   2000.00 MB
Memory needed for S+T                      ...     33.02 MB
Memory needed for J+K                      ...     66.26 MB
Memory needed for DIIS                     ...    462.33 MB
Memory needed for 3-ext                    ...    133.39 MB
Memory needed for 4-ext                    ...    433.52 MB
Memory needed for triples                  ...     41.68 MB
 -> Final InCoreLevel    ... 5
 -> check shows that triples correction can be computed


Wavefunction type
-----------------
Correlation treatment                      ...      CCSD     
Single excitations                         ... ON
Orbital optimization                       ... OFF
Calculation of Z vector                    ... OFF
Calculation of Brueckner orbitals          ... OFF
Perturbative triple excitations            ... ON
Calculation of F12 correction              ... OFF
Frozen core treatment                      ... chemical core (30 el)
Reference Wavefunction                     ... RHF
  Internal Orbitals:    15 ...   30 ( 16 MO's/ 32 electrons)
  Virtual  Orbitals:    31 ...  133 (103 MO's              )
Number of AO's                             ...    134
Number of electrons                        ...     62
Number of correlated electrons             ...     32

Algorithmic settings
--------------------
Integral transformation                    ... AO direct full transformation
K(C) Formation                             ... FULL-MO TRAFO
Maximum number of iterations               ...        50
Convergence tolerance (max. residuum)      ... 2.500e-05
Level shift for amplitude update           ... 2.000e-01
Maximum number of DIIS vectors             ...         7
DIIS turned on at iteration                ...         0
Damping before turning on DIIS             ...     0.500
Damping after turning on DIIS              ...     0.000
Pair specific amplitude update             ... OFF
Natural orbital iterations                 ... OFF
Perturbative natural orbital generation    ... OFF
Printlevel                                 ... 2

Memory handling:
----------------
Maximum memory for working arrays          ...   2000 MB
Data storage in matrix containers          ... UNCOMPRESSED
Data type for integral storage             ... DOUBLE
In-Core Storage of quantities:
   Amplitudes+Sigma Vector      ... YES
   J+K operators                ... YES
   DIIS vectors                 ... YES
   3-external integrals         ... YES
   4-external integrals         ... YES


Initializing the integral package          ... done
Warning: reference  - re-canonicalizations have been set to INT 1 VIRT 1

--------------------------
CLOSED-SHELL FOCK OPERATOR
--------------------------

[1632393739.425702] [comp0814:114125:0]            sys.c:618  UCX  ERROR shmget(size=2097152 flags=0xb80) for ucp_am_bufs failed: Operation not permitted, please check shared memory limits by 'ipcs -l'
MDCI_FockCPCM: ediel   =  -0.111598746000
MDCI_FockCPCM: <VCPCM> =  -4.914984675796
<ss|ss>:        39903 b         4929 skpd ( 12.4%)    0.003 s ( 0.000 ms/b)
<ss|sp>:        99264 b        13721 skpd ( 13.8%)    0.017 s ( 0.000 ms/b)
<ss|sd>:        50196 b         6169 skpd ( 12.3%)    0.010 s ( 0.000 ms/b)
<ss|sf>:        18612 b         2876 skpd ( 15.5%)    0.004 s ( 0.000 ms/b)
<ss|pp>:        34404 b         4538 skpd ( 13.2%)    0.009 s ( 0.000 ms/b)
<ss|pd>:        32712 b         4843 skpd ( 14.8%)    0.014 s ( 0.000 ms/b)
<ss|pf>:        12408 b         2157 skpd ( 17.4%)    0.005 s ( 0.001 ms/b)
<ss|dd>:         9588 b         1258 skpd ( 13.1%)    0.008 s ( 0.001 ms/b)
<ss|df>:         6486 b         1094 skpd ( 16.9%)    0.004 s ( 0.001 ms/b)
<ss|ff>:         1692 b          224 skpd ( 13.2%)    0.001 s ( 0.001 ms/b)
<sp|sp>:        62128 b         9233 skpd ( 14.9%)    0.015 s ( 0.000 ms/b)
<sp|sd>:        62656 b         9209 skpd ( 14.7%)    0.020 s ( 0.000 ms/b)
<sp|sf>:        23232 b         4130 skpd ( 17.8%)    0.008 s ( 0.000 ms/b)
<sp|pp>:        42944 b         5536 skpd ( 12.9%)    0.020 s ( 0.001 ms/b)
<sp|pd>:        40832 b         6397 skpd ( 15.7%)    0.033 s ( 0.001 ms/b)
<sp|pf>:        15488 b         2960 skpd ( 19.1%)    0.013 s ( 0.001 ms/b)
<sp|dd>:        11968 b         1802 skpd ( 15.1%)    0.020 s ( 0.002 ms/b)
<sp|df>:         8096 b         1609 skpd ( 19.9%)    0.010 s ( 0.002 ms/b)
<sp|ff>:         2112 b          308 skpd ( 14.6%)    0.004 s ( 0.002 ms/b)
<sd|sd>:        15931 b         2155 skpd ( 13.5%)    0.009 s ( 0.001 ms/b)
<sd|sf>:        11748 b         1972 skpd ( 16.8%)    0.008 s ( 0.001 ms/b)
<sd|pp>:        21716 b         2865 skpd ( 13.2%)    0.019 s ( 0.001 ms/b)
<sd|pd>:        20648 b         3136 skpd ( 15.2%)    0.033 s ( 0.002 ms/b)
<sd|pf>:         7832 b         1590 skpd ( 20.3%)    0.013 s ( 0.002 ms/b)
<sd|dd>:         6052 b          844 skpd ( 13.9%)    0.021 s ( 0.004 ms/b)
<sd|df>:         4094 b          827 skpd ( 20.2%)    0.011 s ( 0.004 ms/b)
<sd|ff>:         1068 b          160 skpd ( 15.0%)    0.004 s ( 0.005 ms/b)
<sf|sf>:         2211 b          419 skpd ( 19.0%)    0.002 s ( 0.001 ms/b)
<sf|pp>:         8052 b         1320 skpd ( 16.4%)    0.010 s ( 0.001 ms/b)
<sf|pd>:         7656 b         1385 skpd ( 18.1%)    0.017 s ( 0.003 ms/b)
<sf|pf>:         2904 b          665 skpd ( 22.9%)    0.008 s ( 0.003 ms/b)
<sf|dd>:         2244 b          411 skpd ( 18.3%)    0.011 s ( 0.006 ms/b)
<sf|df>:         1518 b          357 skpd ( 23.5%)    0.007 s ( 0.006 ms/b)
<sf|ff>:          396 b           74 skpd ( 18.7%)    0.002 s ( 0.007 ms/b)
<pp|pp>:         7503 b          814 skpd ( 10.8%)    0.010 s ( 0.002 ms/b)
<pp|pd>:        14152 b         1814 skpd ( 12.8%)    0.031 s ( 0.003 ms/b)
<pp|pf>:         5368 b          819 skpd ( 15.3%)    0.013 s ( 0.003 ms/b)
<pp|dd>:         4148 b          511 skpd ( 12.3%)    0.019 s ( 0.005 ms/b)
<pp|df>:         2806 b          466 skpd ( 16.6%)    0.011 s ( 0.005 ms/b)
<pp|ff>:          732 b           89 skpd ( 12.2%)    0.004 s ( 0.007 ms/b)
<pd|pd>:         6786 b          994 skpd ( 14.6%)    0.034 s ( 0.006 ms/b)
<pd|pf>:         5104 b          997 skpd ( 19.5%)    0.021 s ( 0.005 ms/b)
<pd|dd>:         3944 b          588 skpd ( 14.9%)    0.033 s ( 0.010 ms/b)
<pd|df>:         2668 b          535 skpd ( 20.1%)    0.021 s ( 0.010 ms/b)
<pd|ff>:          696 b          109 skpd ( 15.7%)    0.008 s ( 0.013 ms/b)
<pf|pf>:          990 b          243 skpd ( 24.5%)    0.006 s ( 0.008 ms/b)
<pf|dd>:         1496 b          311 skpd ( 20.8%)    0.015 s ( 0.013 ms/b)
<pf|df>:         1012 b          268 skpd ( 26.5%)    0.010 s ( 0.013 ms/b)
<pf|ff>:          264 b           57 skpd ( 21.6%)    0.004 s ( 0.020 ms/b)
<dd|dd>:          595 b           81 skpd ( 13.6%)    0.014 s ( 0.027 ms/b)
<dd|df>:          782 b          150 skpd ( 19.2%)    0.012 s ( 0.020 ms/b)
<dd|ff>:          204 b           35 skpd ( 17.2%)    0.005 s ( 0.028 ms/b)
<df|df>:          276 b           78 skpd ( 28.3%)    0.006 s ( 0.028 ms/b)
<df|ff>:          138 b           34 skpd ( 24.6%)    0.004 s ( 0.039 ms/b)
<ff|ff>:           21 b            5 skpd ( 23.8%)    0.001 s ( 0.067 ms/b)
Recanonicalizing the internal orbitals
Recanonicalizing the virtual orbitals
Time needed for Fock operator              ...            0.974 sec
Reference energy                           ...  -3071.719478988
<ss|**>: 
------------------------------
PARTIAL COULOMB TRANSFORMATION
------------------------------

Transformation type                        ... one-operator
Dimension of the basis                     ...  134
Number of internal MOs                     ...  119 (15-133)
Pair cutoff                                ... 0.000e+00 Eh
Number of AO pairs included in the trafo   ... 9035
Total Number of distinct AO pairs          ... 9045
Memory devoted for trafo                   ... 2000.0 MB 
Max. Number of MO pairs treated together   ... 28982      
Max. Number of MOs treated per batch       ...  216      
Number Format for Storage                  ... Double (8 Byte)
AO-integral source                         ... DIRECT
Integral package used                      ... LIBINT

Starting integral evaluation:
      344886 b        0 skpd     0.084 s (  0.000 ms/b)
<sp|**>:       430496 b        0 skpd     0.218 s (  0.001 ms/b)
<sd|**>:       217694 b        0 skpd     0.179 s (  0.001 ms/b)
<sf|**>:        80718 b        0 skpd     0.097 s (  0.001 ms/b)
<pp|**>:       149206 b        0 skpd     0.182 s (  0.001 ms/b)
<pd|**>:       141868 b        0 skpd     0.304 s (  0.002 ms/b)
<pf|**>:        53812 b        0 skpd     0.144 s (  0.003 ms/b)
<dd|**>:        41582 b        0 skpd     0.181 s (  0.004 ms/b)
<df|**>:        28129 b        0 skpd     0.119 s (  0.004 ms/b)
<ff|**>:         7338 b        0 skpd     0.047 s (  0.006 ms/b)
Closing buffer AOJ ( 0.11 GB; CompressionRatio= 1.00)
Collecting buffer AOJ 
    ... done with AO integral generation
Number of MO pairs included in the trafo   ... 7140
    ... Now sorting integrals
IBATCH = 1 of  1
Closing buffer JAO ( 0.12 GB; CompressionRatio= 1.00)
Collecting buffer JAO 
TOTAL TIME for half transformation         ...     2.432 sec
AO-integral generation                     ...     1.112 sec
Half transformation                        ...     0.448 sec
J-integral sorting                         ...     0.765 sec

-------------------------- SECOND HALF TRANSFORMATION -------------------------
Formation of (pq|rs)                       ... ok (     0.472 sec)
Integral sorting                           ... ok (     1.124 sec)

------------------
CLOSED SHELL GUESS
------------------

Initial guess performed in     0.014 sec
E(0)                                       ...  -3071.719478988
E(MP2)                                     ...     -0.649754689
Initial E(tot)                             ...  -3072.369233677
<T|T>                                      ...      0.207803636
Number of pairs included                   ... 136
Total number of pairs                      ... 136

------------------------------------------------
                  RHF COUPLED CLUSTER ITERATIONS
------------------------------------------------

Number of amplitudes to be optimized       ... 1444472

Iter       E(tot)           E(Corr)          Delta-E          Residual     Time
  0  -3072.369233677     -0.649754689      0.000000000      0.018313213    1.22
                           *** Turning on DIIS ***
  1  -3072.388997289     -0.669518300     -0.019763612      0.004982175    1.72
  2  -3072.402988353     -0.683509365     -0.013991064      0.002015539    1.79
  3  -3072.406234273     -0.686755285     -0.003245920      0.000807619    1.77
  4  -3072.406685171     -0.687206183     -0.000450898      0.000295500    1.81
  5  -3072.406734382     -0.687255394     -0.000049211      0.000122552    1.81
  6  -3072.406744662     -0.687265674     -0.000010280      0.000051364    1.85
  7  -3072.406745107     -0.687266119     -0.000000445      0.000017110    1.88
               --- The Coupled-Cluster iterations have converged ---

----------------------
COUPLED CLUSTER ENERGY
----------------------

E(0)                                       ...  -3071.719478988
E(CORR)                                    ...     -0.687266119
E(TOT)                                     ...  -3072.406745107
Singles Norm <S|S>**1/2                    ...      0.037071140  
T1 diagnostic                              ...      0.006553314  

------------------
LARGEST AMPLITUDES
------------------
  25-> 31  25-> 31       0.044829
  28-> 53  28-> 53       0.040676
  28-> 54  28-> 54       0.039053
  29-> 54  29-> 54       0.037837
  29-> 53  29-> 53       0.036094
  28-> 55  28-> 55       0.035525
  27-> 42  27-> 42       0.031046
  30-> 55  30-> 55       0.030079
  28-> 46  28-> 46       0.029625
  24-> 50  24-> 50       0.028160
  25-> 31  25-> 35       0.027605
  25-> 35  25-> 31       0.027605
  27-> 40  27-> 40       0.025570
  26-> 41  26-> 41       0.024988
  25-> 35  25-> 35       0.024922
  30-> 55  28-> 54       0.022965


        !!!!!!!!!!!!!!!!!!!!!!!!!!!!!!!!!!!!!!!!!!!!!!!!!!!!!!!!!!!!!!!!!!!!!!!!!! 
        !  Warning: Densities are linearized densities !                         !
        !!!!!!!!!!!!!!!!!!!!!!!!!!!!!!!!!!!!!!!!!!!!!!!!!!!!!!!!!!!!!!!!!!!!!!!!!! 

Trace of internal density part =     -0.490155814
Trace of external density part =      0.490155814
----------------------
RHF TRIPLES CORRECTION (Algorithm 1)
----------------------

Multiplier for the singles contribution    ...      1.000000000

10% done
20% done
30% done
40% done
50% done
60% done
70% done
80% done
90% done

Triples Correction (T)                     ...     -0.023966226
Scaling of triples based on CCSD energies (Peterson et al. Molecular Physics 113, 1551 (2015))
E(T*) = f*E(T) where f = E(F12-CCSD)/E(CCSD) 
f = CCSD (with F12)/ CCSD (without F12)    ...      1.000000000
Scaled triples correction (T)              ...     -0.023966226

Final correlation energy                   ...     -0.711232345
E(CCSD)                                    ...  -3072.406745107
E(CCSD(T))                                 ...  -3072.430711333

NORM  =      1.246452177 sqrt=     1.116446226
W(HF) =      0.802277070
------------------------------------------------------------------------------
                           ORCA POPULATION ANALYSIS
------------------------------------------------------------------------------
Input electron density              ... manual_reactants_341_sp.mdcip
BaseName (.gbw .S,...)              ... manual_reactants_341_sp

                    ********************************
                    * MULLIKEN POPULATION ANALYSIS *
                    ********************************

-----------------------
MULLIKEN ATOMIC CHARGES
-----------------------
   0 C :   -0.360767
   1 Br:   -0.187298
   2 H :    0.168136
   3 H :    0.166409
   4 H :    0.167399
   5 Cl:   -0.953878
Sum of atomic charges:   -1.0000000

--------------------------------
MULLIKEN REDUCED ORBITAL CHARGES
--------------------------------
  0 C s       :     3.237178  s :     3.237178
      pz      :     0.886045  p :     3.011544
      px      :     1.049199
      py      :     1.076301
      dz2     :     0.023610  d :     0.103442
      dxz     :     0.025699
      dyz     :     0.017974
      dx2y2   :     0.014296
      dxy     :     0.021863
      f0      :     0.001162  f :     0.008602
      f+1     :     0.001677
      f-1     :     0.001039
      f+2     :     0.001119
      f-2     :     0.001322
      f+3     :     0.001434
      f-3     :     0.000849
  1 Brs       :     7.899933  s :     7.899933
      pz      :     5.447915  p :    17.136771
      px      :     5.797454
      py      :     5.891402
      dz2     :     2.029852  d :    10.129865
      dxz     :     2.031268
      dyz     :     2.025558
      dx2y2   :     2.020702
      dxy     :     2.022486
      f0      :     0.003289  f :     0.020729
      f+1     :     0.004088
      f-1     :     0.003109
      f+2     :     0.002805
      f-2     :     0.003145
      f+3     :     0.002145
      f-3     :     0.002148
  2 H s       :     0.807792  s :     0.807792
      pz      :     0.005296  p :     0.024073
      px      :     0.009141
      py      :     0.009635
  3 H s       :     0.806365  s :     0.806365
      pz      :     0.010172  p :     0.027225
      px      :     0.012130
      py      :     0.004923
  4 H s       :     0.808571  s :     0.808571
      pz      :     0.004972  p :     0.024030
      px      :     0.007013
      py      :     0.012045
  5 Cls       :     5.964632  s :     5.964632
      pz      :     3.959670  p :    11.868257
      px      :     3.946792
      py      :     3.961795
      dz2     :     0.022118  d :     0.110953
      dxz     :     0.022426
      dyz     :     0.022042
      dx2y2   :     0.022302
      dxy     :     0.022065
      f0      :     0.001434  f :     0.010037
      f+1     :     0.001435
      f-1     :     0.001425
      f+2     :     0.001445
      f-2     :     0.001430
      f+3     :     0.001437
      f-3     :     0.001431


                     *******************************
                     * LOEWDIN POPULATION ANALYSIS *
                     *******************************

----------------------
LOEWDIN ATOMIC CHARGES
----------------------
   0 C :   -0.531789
   1 Br:    0.136391
   2 H :    0.115283
   3 H :    0.089971
   4 H :    0.115737
   5 Cl:   -0.925593

-------------------------------
LOEWDIN REDUCED ORBITAL CHARGES
-------------------------------
  0 C s       :     2.950492  s :     2.950492
      pz      :     1.026416  p :     3.252803
      px      :     1.110874
      py      :     1.115513
      dz2     :     0.074520  d :     0.302160
      dxz     :     0.085262
      dyz     :     0.048825
      dx2y2   :     0.030117
      dxy     :     0.063437
      f0      :     0.004229  f :     0.026334
      f+1     :     0.004553
      f-1     :     0.004430
      f+2     :     0.004505
      f-2     :     0.003011
      f+3     :     0.003632
      f-3     :     0.001974
  1 Brs       :     7.610126  s :     7.610126
      pz      :     5.431543  p :    17.019353
      px      :     5.751121
      py      :     5.836688
      dz2     :     2.054664  d :    10.205331
      dxz     :     2.053484
      dyz     :     2.042035
      dx2y2   :     2.026087
      dxy     :     2.029060
      f0      :     0.005153  f :     0.028799
      f+1     :     0.006156
      f-1     :     0.004469
      f+2     :     0.003959
      f-2     :     0.004417
      f+3     :     0.002324
      f-3     :     0.002322
  2 H s       :     0.813507  s :     0.813507
      pz      :     0.014606  p :     0.071211
      px      :     0.027687
      py      :     0.028917
  3 H s       :     0.829127  s :     0.829127
      pz      :     0.031019  p :     0.080902
      px      :     0.036116
      py      :     0.013766
  4 H s       :     0.813316  s :     0.813316
      pz      :     0.013414  p :     0.070948
      px      :     0.020664
      py      :     0.036870
  5 Cls       :     5.961483  s :     5.961483
      pz      :     3.950351  p :    11.841837
      px      :     3.929429
      py      :     3.962056
      dz2     :     0.022227  d :     0.112174
      dxz     :     0.022968
      dyz     :     0.022054
      dx2y2   :     0.022832
      dxy     :     0.022093
      f0      :     0.001448  f :     0.010099
      f+1     :     0.001437
      f-1     :     0.001425
      f+2     :     0.001475
      f-2     :     0.001431
      f+3     :     0.001452
      f-3     :     0.001432


------------------
HIRSHFELD ANALYSIS
------------------

Total integrated alpha density =     31.001750135
Total integrated beta density  =     31.001750135

  ATOM     CHARGE      SPIN  
   0 C   -0.042510    0.000000
   1 Br  -0.168869    0.000000
   2 H    0.049256    0.000000
   3 H    0.008945    0.000000
   4 H    0.049326    0.000000
   5 Cl  -0.899648    0.000000

  TOTAL  -1.003500    0.000000     67074.8


                      *****************************
                      * MAYER POPULATION ANALYSIS *
                      *****************************

  NA   - Mulliken gross atomic population
  ZA   - Total nuclear charge
  QA   - Mulliken gross atomic charge
  VA   - Mayer's total valence
  BVA  - Mayer's bonded valence
  FA   - Mayer's free valence

  ATOM       NA         ZA         QA         VA         BVA        FA
  0 C      6.3608     6.0000    -0.3608     3.9929     3.6081     0.3849
  1 Br    35.1873    35.0000    -0.1873     1.5808     0.9134     0.6674
  2 H      0.8319     1.0000     0.1681     0.9700     0.9080     0.0620
  3 H      0.8336     1.0000     0.1664     1.0320     0.9682     0.0639
  4 H      0.8326     1.0000     0.1674     0.9703     0.9081     0.0622
  5 Cl    17.9539    17.0000    -0.9539     0.7523     0.0733     0.6790

  Mayer bond orders larger than 0.100000
B(  0-C ,  1-Br) :   0.9068 B(  0-C ,  2-H ) :   0.9124 B(  0-C ,  3-H ) :   0.8903 
B(  0-C ,  4-H ) :   0.9126 



------------------------------------------------------------------------------- 
                                     TIMINGS                                   
------------------------------------------------------------------------------- 


Total execution time                   ...       34.410 sec

Fock Matrix Formation                  ...        0.974 sec (  2.8%)
Initial Guess                          ...        0.014 sec (  0.0%)
DIIS Solver                            ...        0.652 sec (  1.9%)
State Vector Update                    ...        0.041 sec (  0.1%)
Sigma-vector construction              ...       13.157 sec ( 38.2%)
  <0|H|D>                              ...        0.014 sec (  0.1% of sigma)
  <D|H|D>(0-ext)                       ...        0.989 sec (  7.5% of sigma)
  <D|H|D>(2-ext Fock)                  ...        0.028 sec (  0.2% of sigma)
  <D|H|D>(2-ext)                       ...        1.469 sec ( 11.2% of sigma)
  <D|H|D>(4-ext)                       ...        1.126 sec (  8.6% of sigma)
  <D|H|D>(4-ext-corr)                  ...        1.131 sec (  8.6% of sigma)
  <S|H|0>                              ...        0.008 sec (  0.1% of sigma)
  <S|H|S>                              ...        0.020 sec (  0.2% of sigma)
  <S|H|D>(1-ext)                       ...        0.186 sec (  1.4% of sigma)
  <D|H|S>(1-ext)                       ...        0.317 sec (  2.4% of sigma)
  <S|H|D>(3-ext)                       ...        0.864 sec (  6.6% of sigma)
  Fock-dressing                        ...        3.551 sec ( 27.0% of sigma)
  (ik|jl)-dressing                     ...        1.133 sec (  8.6% of sigma)
  (ij|ab),(ia|jb)-dressing             ...        2.155 sec ( 16.4% of sigma)
  Pair energies                        ...        0.016 sec (  0.1% of sigma)
Total Time for computing (T)           ...       13.016 sec ( 37.8% of ALL)
  I/O of integral and amplitudes       ...        1.057 sec (  8.1% of (T))
  N**6 sorting step                    ...        3.894 sec ( 29.9% of (T))
  External N**7 contributions          ...        4.679 sec ( 35.9% of (T))
  Internal N**7 contributions          ...        1.494 sec ( 11.5% of (T))
  N**6 triples energy contributions    ...        1.892 sec ( 14.5% of (T))
One-particle density matrix            ...        0.031 sec (  0.1%)


-------------------------   --------------------
FINAL SINGLE POINT ENERGY     -3072.430711332753
-------------------------   --------------------


                            ***************************************
                            *     ORCA property calculations      *
                            ***************************************

                                    ---------------------
                                    Active property flags
                                    ---------------------
   (+) Dipole Moment


------------------------------------------------------------------------------
                       ORCA ELECTRIC PROPERTIES CALCULATION
------------------------------------------------------------------------------

Dipole Moment Calculation                       ... on
Quadrupole Moment Calculation                   ... off
Polarizability Calculation                      ... off
GBWName                                         ... manual_reactants_341_sp.gbw
Electron density file                           ... manual_reactants_341_sp.scfp
The origin for moment calculation is the CENTER OF MASS  = ( 1.076600,  0.050803  0.118337)

-------------
DIPOLE MOMENT
-------------
                                X             Y             Z
Electronic contribution:     -1.20073       3.51007     -13.18785
Nuclear contribution   :     -2.16344      -2.91710       9.71520
                        -----------------------------------------
Total Dipole Moment    :     -3.36417       0.59297      -3.47265
                        -----------------------------------------
Magnitude (a.u.)       :      4.87120
Magnitude (Debye)      :     12.38160



--------------------
Rotational spectrum 
--------------------
 
Rotational constants in cm-1:     0.427915     0.038718     0.035752 
Rotational constants in MHz : 12828.559130  1160.725723  1071.813667 

 Dipole components along the rotational axes: 
x,y,z [a.u.] :    -4.717221     1.215062     0.000881 
x,y,z [Debye]:   -11.990223     3.088441     0.002240 

 

                           *** MDCI DENSITY ***

------------------------------------------------------------------------------
                       ORCA ELECTRIC PROPERTIES CALCULATION
------------------------------------------------------------------------------

Dipole Moment Calculation                       ... on
Quadrupole Moment Calculation                   ... off
Polarizability Calculation                      ... off
GBWName                                         ... manual_reactants_341_sp.gbw
Electron density file                           ... manual_reactants_341_sp.mdcip
The origin for moment calculation is the CENTER OF MASS  = ( 1.076600,  0.050803  0.118337)

-------------
DIPOLE MOMENT
-------------
                                X             Y             Z
Electronic contribution:     -1.11923       3.54298     -13.27677
Nuclear contribution   :     -2.16344      -2.91710       9.71520
                        -----------------------------------------
Total Dipole Moment    :     -3.28267       0.62588      -3.56157
                        -----------------------------------------
Magnitude (a.u.)       :      4.88390
Magnitude (Debye)      :     12.41389



--------------------
Rotational spectrum 
--------------------
 
Rotational constants in cm-1:     0.427915     0.038718     0.035752 
Rotational constants in MHz : 12828.559130  1160.725723  1071.813667 

 Dipole components along the rotational axes: 
x,y,z [a.u.] :    -4.759048     1.097240     0.001236 
x,y,z [Debye]:   -12.096539     2.788963     0.003141 

 
[1632393774.945938] [comp0814:114199:0]            sys.c:618  UCX  ERROR shmget(size=2097152 flags=0xfb0) for mm_recv_desc failed: Operation not permitted, please check shared memory limits by 'ipcs -l'
[1632393774.950494] [comp0814:114196:0]            sys.c:618  UCX  ERROR shmget(size=2097152 flags=0xfb0) for mm_recv_desc failed: Operation not permitted, please check shared memory limits by 'ipcs -l'
[1632393774.954526] [comp0814:114197:0]            sys.c:618  UCX  ERROR shmget(size=2097152 flags=0xfb0) for mm_recv_desc failed: Operation not permitted, please check shared memory limits by 'ipcs -l'
[1632393774.954683] [comp0814:114198:0]            sys.c:618  UCX  ERROR shmget(size=2097152 flags=0xfb0) for mm_recv_desc failed: Operation not permitted, please check shared memory limits by 'ipcs -l'
[1632393774.968496] [comp0814:114197:0]            sys.c:618  UCX  ERROR shmget(size=2097152 flags=0xb80) for ucp_am_bufs failed: Operation not permitted, please check shared memory limits by 'ipcs -l'
[1632393774.968907] [comp0814:114196:0]            sys.c:618  UCX  ERROR shmget(size=2097152 flags=0xb80) for ucp_am_bufs failed: Operation not permitted, please check shared memory limits by 'ipcs -l'
[1632393774.968890] [comp0814:114198:0]            sys.c:618  UCX  ERROR shmget(size=2097152 flags=0xb80) for ucp_am_bufs failed: Operation not permitted, please check shared memory limits by 'ipcs -l'

Timings for individual modules:

Sum of individual times         ...       46.729 sec (=   0.779 min)
GTO integral calculation        ...        1.175 sec (=   0.020 min)   2.5 %
SCF iterations                  ...        7.917 sec (=   0.132 min)  16.9 %
MDCI module                     ...       37.637 sec (=   0.627 min)  80.5 %
                             ****ORCA TERMINATED NORMALLY****
TOTAL RUN TIME: 0 days 0 hours 0 minutes 47 seconds 807 msec
