
                                 *****************
                                 * O   R   C   A *
                                 *****************

           --- An Ab Initio, DFT and Semiempirical electronic structure package ---

                  #######################################################
                  #                        -***-                        #
                  #          Department of theory and spectroscopy      #
                  #               Directorship: Frank Neese             #
                  #        Max Planck Institute fuer Kohlenforschung    #
                  #                Kaiser Wilhelm Platz 1               #
                  #                 D-45470 Muelheim/Ruhr               #
                  #                      Germany                        #
                  #                                                     #
                  #                  All rights reserved                #
                  #                        -***-                        #
                  #######################################################


                         Program Version 4.2.1 -  RELEASE  -


 With contributions from (in alphabetic order):
   Daniel Aravena         : Magnetic Suceptibility
   Michael Atanasov       : Ab Initio Ligand Field Theory (pilot matlab implementation)
   Alexander A. Auer      : GIAO ZORA, VPT2
   Ute Becker             : Parallelization
   Giovanni Bistoni       : ED, misc. LED, open-shell LED, HFLD
   Martin Brehm           : Molecular dynamics
   Dmytro Bykov           : SCF Hessian
   Vijay G. Chilkuri      : MRCI spin determinant printing, contributions to CSF-ICE
   Dipayan Datta          : RHF DLPNO-CCSD density
   Achintya Kumar Dutta   : EOM-CC, STEOM-CC
   Dmitry Ganyushin       : Spin-Orbit,Spin-Spin,Magnetic field MRCI
   Miquel Garcia          : C-PCM Hessian, Gaussian charge scheme
   Yang Guo               : DLPNO-NEVPT2, CIM, IAO-localization
   Andreas Hansen         : Spin unrestricted coupled pair/coupled cluster methods
   Benjamin Helmich-Paris : CASSCF linear response (MC-RPA)
   Lee Huntington         : MR-EOM, pCC
   Robert Izsak           : Overlap fitted RIJCOSX, COSX-SCS-MP3, EOM
   Christian Kollmar      : KDIIS, OOCD, Brueckner-CCSD(T), CCSD density
   Simone Kossmann        : Meta GGA functionals, TD-DFT gradient, OOMP2, MP2 Hessian
   Martin Krupicka        : AUTO-CI
   Lucas Lang             : DCDCAS
   Dagmar Lenk            : GEPOL surface, SMD
   Dimitrios Liakos       : Extrapolation schemes; Compound Job, initial MDCI parallelization
   Dimitrios Manganas     : Further ROCIS development; embedding schemes
   Dimitrios Pantazis     : SARC Basis sets
   Taras Petrenko         : DFT Hessian,TD-DFT gradient, ASA, ECA, R-Raman, ABS, FL, XAS/XES, NRVS
   Peter Pinski           : DLPNO-MP2, DLPNO-MP2 Gradient
   Christoph Reimann      : Effective Core Potentials
   Marius Retegan         : Local ZFS, SOC
   Christoph Riplinger    : Optimizer, TS searches, QM/MM, DLPNO-CCSD(T), (RO)-DLPNO pert. Triples
   Tobias Risthaus        : Range-separated hybrids, TD-DFT gradient, RPA, STAB
   Michael Roemelt        : Original ROCIS implementation
   Masaaki Saitow         : Open-shell DLPNO-CCSD energy and density
   Barbara Sandhoefer     : DKH picture change effects
   Avijit Sen             : IP-ROCIS
   Kantharuban Sivalingam : CASSCF convergence, NEVPT2, FIC-MRCI
   Bernardo de Souza      : ESD, SOC TD-DFT
   Georgi Stoychev        : AutoAux, RI-MP2 NMR
   Willem Van den Heuvel  : Paramagnetic NMR
   Boris Wezisla          : Elementary symmetry handling
   Frank Wennmohs         : Technical directorship


 We gratefully acknowledge several colleagues who have allowed us to
 interface, adapt or use parts of their codes:
   Stefan Grimme, W. Hujo, H. Kruse,             : VdW corrections, initial TS optimization,
                  C. Bannwarth                     DFT functionals, gCP, sTDA/sTD-DF
   Ed Valeev, F. Pavosevic, A. Kumar             : LibInt (2-el integral package), F12 methods
   Garnet Chan, S. Sharma, J. Yang, R. Olivares  : DMRG
   Ulf Ekstrom                                   : XCFun DFT Library
   Mihaly Kallay                                 : mrcc  (arbitrary order and MRCC methods)
   Andreas Klamt, Michael Diedenhofen            : otool_cosmo (COSMO solvation model)
   Jiri Pittner, Ondrej Demel                    : Mk-CCSD
   Frank Weinhold                                : gennbo (NPA and NBO analysis)
   Christopher J. Cramer and Donald G. Truhlar   : smd solvation model
   Lars Goerigk                                  : TD-DFT with DH, B97 family of functionals
   V. Asgeirsson, H. Jonsson                     : NEB implementation
   FAccTs GmbH                                   : IRC, NEB, NEB-TS, Multilevel, MM, QM/MM, CI optimization
   S Lehtola, MJT Oliveira, MAL Marques          : LibXC Library


 Your calculation uses the libint2 library for the computation of 2-el integrals
 For citations please refer to: http://libint.valeyev.net

 Your ORCA version has been built with support for libXC version: 4.2.3
 For citations please refer to: https://tddft.org/programs/libxc/

 This ORCA versions uses:
   CBLAS   interface :  Fast vector & matrix operations
   LAPACKE interface :  Fast linear algebra routines
   SCALAPACK package :  Parallel linear algebra routines


----- Orbital basis set information -----
Your calculation utilizes the basis: def2-TZVP
   F. Weigend and R. Ahlrichs, Phys. Chem. Chem. Phys. 7, 3297 (2005).

cite the ECPs for I  [Def2-ECP] as follows:
Ce-Yb(ecp-28): M. Dolg, H. Stoll, H.Preuss, J. Chem. Phys., 1989, 90, 1730-1734.
Y-Cd(ecp-28), Hf-Hg(ecp-46): D. Andrae,U. Haeussermann, M. Dolg, H. Stoll, H. Preuss, Theor. Chim. Acta, 1990, 77, 123-141.
In-Sb(ecp-28), Tl-Bi(ecp-46): B. Metz, H. Stoll, M. Dolg, J. Chem. Phys., 2000, 113, 2563-2569.
Te-Xe(ecp-28), Po-Rn(ecp-46): K. A. Peterson, D. Figgen, E. Goll, H. Stoll, M. Dolg, J. Chem. Phys., 2003, 119, 11113-11123.
Rb(ecp-28), Cs(ecp-46): T. Leininger, A. Nicklass, W. Kuechle, H. Stoll, M. Dolg, A. Bergner, Chem. Phys. Lett., 1996, 255, 274-280.
Sr(ecp-28), Ba(ecp-46): M. Kaupp, P. V. Schleyer, H. Stoll and H. Preuss, J. Chem. Phys., 1991, 94, 1360-1366.
La(ecp-46): M. Dolg, H. Stoll, A. Savin, H. Preuss, Theor. Chim. Acta, 1989, 75, 173-194.
Lu(ecp-28): X. Cao, M. Dolg, J. Chem. Phys., 2001, 115, 7348-7355.

ECP parameters for I  [Def2-ECP] have been obtained from:
TURBOMOLE (7.0.2)

================================================================================
                                        WARNINGS
                       Please study these warnings very carefully!
================================================================================


WARNING: MDCI localization with Augmented Hessian Foster-Boys
  ===> : Switching off randomization!

WARNING: Post HF methods need fully converged wavefunctions
  ===> : Setting SCFConvForced true
         You can overwrite this default with %scf ConvForced false 


INFO   : the flag for use of LIBINT has been found!

================================================================================
                                       INPUT FILE
================================================================================
NAME = manual_reactants_348_sp.inp
|  1> ! SP CCSD(T) def2-TZVP CPCM(Acetone)
|  2> %cpcm
|  3> surfacetype vdw_gaussian
|  4> end
|  5> %geom MaxIter 100 end
|  6> %output 
|  7> xyzfile=True 
|  8> end 
|  9> %scf 
| 10> maxiter 250 
| 11> end
| 12> %output
| 13> Print[P_Hirshfeld] = 1
| 14> end
| 15> % maxcore
| 16> 4000
| 17> %pal nprocs 4
| 18> end
| 19> *xyz -1 1
| 20>   C   -0.96627600837687      0.77491043313378     -2.34534068571402
| 21>   Br  -1.67541206703322     -0.98924809414325     -1.96583047749147
| 22>   H   -1.23147942200114      1.42570172821614     -1.50620289870733
| 23>   H   -1.41411626918291      1.12212640844627     -3.28222603917276
| 24>   H   0.12202883980846      0.68473373992932     -2.42775999089178
| 25>   I   1.06618492678568      0.61553578441774      1.22502009197736
| 26> *
| 27> 
| 28>                          ****END OF INPUT****
================================================================================

                       ****************************
                       * Single Point Calculation *
                       ****************************

---------------------------------
CARTESIAN COORDINATES (ANGSTROEM)
---------------------------------
  C     -0.966276    0.774910   -2.345341
  Br    -1.675412   -0.989248   -1.965830
  H     -1.231479    1.425702   -1.506203
  H     -1.414116    1.122126   -3.282226
  H      0.122029    0.684734   -2.427760
  I      1.066185    0.615536    1.225020

----------------------------
CARTESIAN COORDINATES (A.U.)
----------------------------
  NO LB      ZA    FRAG     MASS         X           Y           Z
   0 C     6.0000    0    12.011   -1.825997    1.464368   -4.432052
   1 Br   35.0000    0    79.900   -3.166070   -1.869408   -3.714881
   2 H     1.0000    0     1.008   -2.327159    2.694186   -2.846311
   3 H     1.0000    0     1.008   -2.672292    2.120512   -6.202508
   4 H     1.0000    0     1.008    0.230601    1.293959   -4.587802
   5 I    25.0000*   0   126.900    2.014798    1.163194    2.314952
* core charge reduced due to ECP

--------------------------------
INTERNAL COORDINATES (ANGSTROEM)
--------------------------------
 C      0   0   0     0.000000000000     0.00000000     0.00000000
 Br     1   0   0     1.938854625080     0.00000000     0.00000000
 H      1   2   0     1.094538435111   107.59710565     0.00000000
 H      1   2   3     1.094931047252   107.84415840   239.46548539
 H      1   2   3     1.095140274324   107.65441368   118.91132190
 I      3   1   2     3.659946630898   106.76156937    77.01649732

---------------------------
INTERNAL COORDINATES (A.U.)
---------------------------
 C      0   0   0     0.000000000000     0.00000000     0.00000000
 Br     1   0   0     3.663904254889     0.00000000     0.00000000
 H      1   2   0     2.068377885411   107.59710565     0.00000000
 H      1   2   3     2.069119814834   107.84415840   239.46548539
 H      1   2   3     2.069515196700   107.65441368   118.91132190
 I      3   1   2     6.916296797165   106.76156937    77.01649732

---------------------
BASIS SET INFORMATION
---------------------
There are 4 groups of distinct atoms

 Group   1 Type C   : 11s6p2d1f contracted to 5s3p2d1f pattern {62111/411/11/1}
 Group   2 Type Br  : 17s13p8d1f contracted to 6s5p4d1f pattern {842111/64111/5111/1}
 Group   3 Type H   : 5s1p contracted to 3s1p pattern {311/1}
 Group   4 Type I   : 11s10p8d2f contracted to 6s5p3d2f pattern {521111/34111/611/11}

Atom   0C    basis set group =>   1
Atom   1Br   basis set group =>   2
Atom   2H    basis set group =>   3
Atom   3H    basis set group =>   3
Atom   4H    basis set group =>   3
Atom   5I    basis set group =>   4
-------------------------
ECP PARAMETER INFORMATION
-------------------------

 Group 1, Type I  ECP Def2-ECP (replacing 28 core electrons, lmax=3)

Atom   5I    ECP group =>   1

[1632406865.029516] [comp0805:198836:0]            sys.c:618  UCX  ERROR shmget(size=2097152 flags=0xfb0) for mm_recv_desc failed: Operation not permitted, please check shared memory limits by 'ipcs -l'
[1632406865.035491] [comp0805:198834:0]            sys.c:618  UCX  ERROR shmget(size=2097152 flags=0xfb0) for mm_recv_desc failed: Operation not permitted, please check shared memory limits by 'ipcs -l'
[1632406865.053811] [comp0805:198837:0]            sys.c:618  UCX  ERROR shmget(size=2097152 flags=0xfb0) for mm_recv_desc failed: Operation not permitted, please check shared memory limits by 'ipcs -l'
[1632406865.056400] [comp0805:198835:0]            sys.c:618  UCX  ERROR shmget(size=2097152 flags=0xfb0) for mm_recv_desc failed: Operation not permitted, please check shared memory limits by 'ipcs -l'
[1632406865.064653] [comp0805:198834:0]            sys.c:618  UCX  ERROR shmget(size=2097152 flags=0xb80) for ucp_am_bufs failed: Operation not permitted, please check shared memory limits by 'ipcs -l'
[1632406865.065369] [comp0805:198835:0]            sys.c:618  UCX  ERROR shmget(size=2097152 flags=0xb80) for ucp_am_bufs failed: Operation not permitted, please check shared memory limits by 'ipcs -l'
[1632406865.069867] [comp0805:198836:0]            sys.c:618  UCX  ERROR shmget(size=2097152 flags=0xb80) for ucp_am_bufs failed: Operation not permitted, please check shared memory limits by 'ipcs -l'


           ************************************************************
           *        Program running with 4 parallel MPI-processes     *
           *              working on a common directory               *
           ************************************************************
------------------------------------------------------------------------------
                           ORCA GTO INTEGRAL CALCULATION
------------------------------------------------------------------------------

                         BASIS SET STATISTICS AND STARTUP INFO

 # of primitive gaussian shells          ...  108
 # of primitive gaussian functions       ...  268
 # of contracted shells                  ...   55
 # of contracted basis functions         ...  147
 Highest angular momentum                ...    3
 Maximum contraction depth               ...    8
 Integral package used                   ... LIBINT
 Integral threshhold            Thresh   ...  1.000e-10
 Primitive cut-off              TCut     ...  1.000e-11


------------------------------ INTEGRAL EVALUATION ----------------------------


 * One electron integrals 

   ECP integrals                         ... done
 Pre-screening matrix                    ... done
 Shell pair data                         ... done (   0.000 sec)
[1632406865.447086] [comp0805:198837:0]            sys.c:618  UCX  ERROR shmget(size=2097152 flags=0xb80) for ucp_am_bufs failed: Operation not permitted, please check shared memory limits by 'ipcs -l'

[1632406866.350197] [comp0805:198860:0]            sys.c:618  UCX  ERROR shmget(size=2097152 flags=0xfb0) for mm_recv_desc failed: Operation not permitted, please check shared memory limits by 'ipcs -l'
[1632406866.356178] [comp0805:198858:0]            sys.c:618  UCX  ERROR shmget(size=2097152 flags=0xfb0) for mm_recv_desc failed: Operation not permitted, please check shared memory limits by 'ipcs -l'
[1632406866.381179] [comp0805:198859:0]            sys.c:618  UCX  ERROR shmget(size=2097152 flags=0xfb0) for mm_recv_desc failed: Operation not permitted, please check shared memory limits by 'ipcs -l'
[1632406866.382306] [comp0805:198861:0]            sys.c:618  UCX  ERROR shmget(size=2097152 flags=0xfb0) for mm_recv_desc failed: Operation not permitted, please check shared memory limits by 'ipcs -l'
[1632406866.390464] [comp0805:198860:0]            sys.c:618  UCX  ERROR shmget(size=2097152 flags=0xb80) for ucp_am_bufs failed: Operation not permitted, please check shared memory limits by 'ipcs -l'
[1632406866.390442] [comp0805:198858:0]            sys.c:618  UCX  ERROR shmget(size=2097152 flags=0xb80) for ucp_am_bufs failed: Operation not permitted, please check shared memory limits by 'ipcs -l'
[1632406866.391068] [comp0805:198861:0]            sys.c:618  UCX  ERROR shmget(size=2097152 flags=0xb80) for ucp_am_bufs failed: Operation not permitted, please check shared memory limits by 'ipcs -l'


           ************************************************************
           *        Program running with 4 parallel MPI-processes     *
           *              working on a common directory               *
           ************************************************************
[1632406866.394305] [comp0805:198859:0]            sys.c:618  UCX  ERROR shmget(size=2097152 flags=0xb80) for ucp_am_bufs failed: Operation not permitted, please check shared memory limits by 'ipcs -l'
-------------------------------------------------------------------------------
                                 ORCA SCF
-------------------------------------------------------------------------------

------------
SCF SETTINGS
------------
Hamiltonian:
 Ab initio Hamiltonian  Method          .... Hartree-Fock(GTOs)


General Settings:
 Integral files         IntName         .... manual_reactants_348_sp
 Hartree-Fock type      HFTyp           .... RHF
 Total Charge           Charge          ....   -1
 Multiplicity           Mult            ....    1
 Number of Electrons    NEL             ....   70
 Basis Dimension        Dim             ....  147
 Nuclear Repulsion      ENuc            ....    220.9451717540 Eh

Convergence Acceleration:
 DIIS                   CNVDIIS         .... on
   Start iteration      DIISMaxIt       ....    12
   Startup error        DIISStart       ....  0.200000
   # of expansion vecs  DIISMaxEq       ....     5
   Bias factor          DIISBfac        ....   1.050
   Max. coefficient     DIISMaxC        ....  10.000
 Newton-Raphson         CNVNR           .... off
 SOSCF                  CNVSOSCF        .... on
   Start iteration      SOSCFMaxIt      ....   150
   Startup grad/error   SOSCFStart      ....  0.003300
 Level Shifting         CNVShift        .... on
   Level shift para.    LevelShift      ....    0.2500
   Turn off err/grad.   ShiftErr        ....    0.0010
 Zerner damping         CNVZerner       .... off
 Static damping         CNVDamp         .... on
   Fraction old density DampFac         ....    0.7000
   Max. Damping (<1)    DampMax         ....    0.9800
   Min. Damping (>=0)   DampMin         ....    0.0000
   Turn off err/grad.   DampErr         ....    0.1000
 Fernandez-Rico         CNVRico         .... off

SCF Procedure:
 Maximum # iterations   MaxIter         ....   250
 SCF integral mode      SCFMode         .... Direct
   Integral package                     .... LIBINT
 Reset frequency        DirectResetFreq ....    20
 Integral Threshold     Thresh          ....  1.000e-10 Eh
 Primitive CutOff       TCut            ....  1.000e-11 Eh

Convergence Tolerance:
 Convergence Check Mode ConvCheckMode   .... Total+1el-Energy
 Convergence forced     ConvForced      .... 1
 Energy Change          TolE            ....  1.000e-06 Eh
 1-El. energy change                    ....  1.000e-03 Eh
 Orbital Gradient       TolG            ....  5.000e-05
 Orbital Rotation angle TolX            ....  5.000e-05
 DIIS Error             TolErr          ....  1.000e-06


Diagonalization of the overlap matrix:
Smallest eigenvalue                        ... 1.802e-03
Time for diagonalization                   ...    0.006 sec
Threshold for overlap eigenvalues          ... 1.000e-08
Number of eigenvalues below threshold      ... 0
Time for construction of square roots      ...    0.002 sec
Total time needed                          ...    0.008 sec

-------------------
DFT GRID GENERATION
-------------------

General Integration Accuracy     IntAcc      ...  4.340
Radial Grid Type                 RadialGrid  ... Gauss-Chebyshev
Angular Grid (max. acc.)         AngularGrid ... Lebedev-110
Angular grid pruning method      GridPruning ... 3 (G Style)
Weight generation scheme         WeightScheme... Becke
Basis function cutoff            BFCut       ...    1.0000e-10
Integration weight cutoff        WCut        ...    1.0000e-14
Grids for H and He will be reduced by one unit

# of grid points (after initial pruning)     ...  10210 (   0.0 sec)
# of grid points (after weights+screening)   ...  10047 (   0.0 sec)
nearest neighbour list constructed           ...    0.0 sec
Grid point re-assignment to atoms done       ...    0.0 sec
Grid point division into batches done        ...    0.0 sec
Reduced shell lists constructed in    0.0 sec

Total number of grid points                  ...    10047
Total number of batches                      ...      160
Average number of points per batch           ...       62
Average number of grid points per atom       ...     1674
Average number of shells per batch           ...    37.49 (68.16%)
Average number of basis functions per batch  ...   102.02 (69.40%)
Average number of large shells per batch     ...    31.46 (83.93%)
Average number of large basis fcns per batch ...    85.41 (83.72%)
Maximum spatial batch extension              ...  20.26, 15.84, 22.23 au
Average spatial batch extension              ...   1.00,  0.89,  0.96 au

Time for grid setup =    0.064 sec

------------------------------
INITIAL GUESS: MODEL POTENTIAL
------------------------------
Loading Hartree-Fock densities                     ... done
  calling /usr/local/orca_4_2_1_linux_x86-64/orca manual_reactants_348_sp_atom53.inp > manual_reactants_348_sp_atom53.out in order to generate an atomic fitting density for atom 5 (I  with ECP) on-the-fly... 
    atom 5 (I ), assumed electronic state with S=2: 1s2 2s2 2p6 3s2 3p6 4s2 3d10 4p6 5s2 4d10 5p5           ... done
Calculating cut-offs                               ... done
Setting up the integral package                    ... done
Initializing the effective Hamiltonian             ... done
Starting the Coulomb interaction                   ... done (   0.0 sec)
Reading the grid                                   ... done
Mapping shells                                     ... done
Starting the XC term evaluation                    ... done (   0.0 sec)
Transforming the Hamiltonian                       ... done (   0.0 sec)
Diagonalizing the Hamiltonian                      ... done (   0.0 sec)
Back transforming the eigenvectors                 ... done (   0.0 sec)
Now organizing SCF variables                       ... done
                      ------------------
                      INITIAL GUESS DONE (   1.4 sec)
                      ------------------

--------------------
CPCM SOLVATION MODEL
--------------------
CPCM parameters:
  Epsilon                                         ...      20.7000
  Refrac                                          ...       1.3590
  Rsolv                                           ...       1.3000
  Surface type                                    ... GAUSSIAN VDW
  Epsilon function type                           ...         CPCM
Radii:
 Radius for C  used is    3.8550 Bohr (=   2.0400 Ang.)
 Radius for Br used is    4.1952 Bohr (=   2.2200 Ang.)
 Radius for H  used is    2.4944 Bohr (=   1.3200 Ang.)
 Radius for I  used is    4.4900 Bohr (=   2.3760 Ang.)
Calculating surface                               ...        done! (  0.0s)
GEPOL surface points                              ...          456
GEPOL Volume                                      ...     848.2352
GEPOL Surface-area                                ...     544.3895
Calculating surface distance matrix               ...        done! (  0.0s)
Performing Cholesky decomposition & store         ...        done! (  0.0s)
Overall time for CPCM initialization              ...                 0.0s
--------------
SCF ITERATIONS
--------------
ITER       Energy         Delta-E        Max-DP      RMS-DP      [F,P]     Damp
               ***  Starting incremental Fock matrix formation  ***
  0  -2767.8006281293   0.000000000000 3.89174002  0.05685262  6.3442635 0.7000
  1  -2842.0229657147 -74.222337585383 9.68838258  0.10149869  2.3711884 0.7000
  2  -2856.8035039035 -14.780538188813 2.70620942  0.03217763  1.0073804 0.7000
  3  -2871.7989423185 -14.995438414962 2.06593034  0.02458847  0.7510277 0.7000
  4  -2882.4638908310 -10.664948512585 1.48078996  0.01794016  0.5422870 0.7000
  5  -2890.1243354699  -7.660444638841 1.04426322  0.01287320  0.3844328 0.7000
  6  -2895.6113153073  -5.486979837445 0.73317825  0.00919098  0.2700667 0.7000
                               ***Turning on DIIS***
  7  -2899.5201398934  -3.908824586090 0.51392887  0.00655079  0.1889685 0.7000
  8  -2902.6470240841  -3.126884190664 0.35975664  0.00476412  0.1320324 0.7000
  9  -2904.5610335442  -1.914009460136 0.83732373  0.01135312  0.0921555 0.0000
 10  -2908.8802830397  -4.319249495444 0.01360406  0.00036968  0.0057645 0.0000
                      *** Initiating the SOSCF procedure ***
                           *** Shutting down DIIS ***
                      *** Re-Reading the Fockian *** 
                      *** Removing any level shift *** 
ITER      Energy       Delta-E        Grad      Rot      Max-DP    RMS-DP
 11  -2908.88605083  -0.0057677861  0.002366  0.002366  0.005269  0.000193
               *** Restarting incremental Fock matrix formation ***
 12  -2908.88395769   0.0020931363  0.000592  0.000831  0.001731  0.000082
 13  -2908.88396977  -0.0000120845  0.000245  0.000619  0.001054  0.000052
 14  -2908.88397227  -0.0000024944  0.000062  0.000080  0.000160  0.000007
 15  -2908.88397238  -0.0000001136  0.000027  0.000059  0.000064  0.000003
                 **** Energy Check signals convergence ****
              ***Rediagonalizing the Fockian in SOSCF/NRSCF***

               *****************************************************
               *                     SUCCESS                       *
               *           SCF CONVERGED AFTER  16 CYCLES          *
               *****************************************************


----------------
TOTAL SCF ENERGY
----------------

Total Energy       :        -2908.88397240 Eh          -79154.75704 eV

Components:
Nuclear Repulsion  :          220.94517175 Eh            6012.22378 eV
Electronic Energy  :        -3129.82914415 Eh          -85166.98082 eV
One Electron Energy:        -4607.52630749 Eh         -125377.16488 eV
Two Electron Energy:         1477.69716334 Eh           40210.18406 eV
CPCM Dielectric    :           -0.09821880 Eh              -2.67267 eV

Virial components:
Potential Energy   :        -5634.62783144 Eh         -153326.01824 eV
Kinetic Energy     :         2725.74385904 Eh           74171.26120 eV
Virial Ratio       :            2.06718904

CPCM Solvation Model Properties:
Surface-charge          :            0.95632666
Charge-correction       :           -0.00584133 Eh              -0.15895 eV
Free-energy (cav+disp)  :            0.00374835 Eh               0.10200 eV
Corrected G(solv)       :        -2908.88606538 Eh          -79154.81399 eV

---------------
SCF CONVERGENCE
---------------

  Last Energy change         ...   -1.8032e-08  Tolerance :   1.0000e-06
  Last MAX-Density change    ...    1.8925e-05  Tolerance :   1.0000e-05
  Last RMS-Density change    ...    6.7807e-07  Tolerance :   1.0000e-06
  Last Orbital Gradient      ...    8.6352e-06  Tolerance :   5.0000e-05
  Last Orbital Rotation      ...    2.6570e-05  Tolerance :   5.0000e-05

             **** THE GBW FILE WAS UPDATED (manual_reactants_348_sp.gbw) ****
             **** DENSITY FILE WAS UPDATED (manual_reactants_348_sp.scfp) ****
             **** ENERGY FILE WAS UPDATED (manual_reactants_348_sp.en.tmp) ****
             **** THE GBW FILE WAS UPDATED (manual_reactants_348_sp.gbw) ****
             **** DENSITY FILE WAS UPDATED (manual_reactants_348_sp.scfp) ****
----------------
ORBITAL ENERGIES
----------------

  NO   OCC          E(Eh)            E(eV) 
   0   2.0000    -490.004736    -13333.7067 
   1   2.0000     -65.147308     -1772.7484 
   2   2.0000     -58.502479     -1591.9334 
   3   2.0000     -58.501200     -1591.8986 
   4   2.0000     -58.501191     -1591.8983 
   5   2.0000     -11.272474      -306.7396 
   6   2.0000      -9.820915      -267.2407 
   7   2.0000      -7.645023      -208.0316 
   8   2.0000      -7.432701      -202.2541 
   9   2.0000      -7.426555      -202.0868 
  10   2.0000      -7.426515      -202.0857 
  11   2.0000      -5.493341      -149.4814 
  12   2.0000      -5.493318      -149.4808 
  13   2.0000      -5.493176      -149.4769 
  14   2.0000      -3.175187       -86.4012 
  15   2.0000      -3.172039       -86.3156 
  16   2.0000      -3.171983       -86.3140 
  17   2.0000      -3.164195       -86.1021 
  18   2.0000      -3.164195       -86.1021 
  19   2.0000      -2.187344       -59.5206 
  20   2.0000      -2.187343       -59.5206 
  21   2.0000      -2.187187       -59.5164 
  22   2.0000      -2.187162       -59.5157 
  23   2.0000      -2.187119       -59.5145 
  24   2.0000      -1.049957       -28.5708 
  25   2.0000      -0.880755       -23.9666 
  26   2.0000      -0.794073       -21.6078 
  27   2.0000      -0.592189       -16.1143 
  28   2.0000      -0.589020       -16.0280 
  29   2.0000      -0.495387       -13.4802 
  30   2.0000      -0.398980       -10.8568 
  31   2.0000      -0.398235       -10.8365 
  32   2.0000      -0.313654        -8.5350 
  33   2.0000      -0.313431        -8.5289 
  34   2.0000      -0.312476        -8.5029 
  35   0.0000       0.142600         3.8804 
  36   0.0000       0.188154         5.1199 
  37   0.0000       0.221802         6.0355 
  38   0.0000       0.226443         6.1618 
  39   0.0000       0.276785         7.5317 
  40   0.0000       0.311324         8.4716 
  41   0.0000       0.314800         8.5662 
  42   0.0000       0.317634         8.6433 
  43   0.0000       0.327046         8.8994 
  44   0.0000       0.332919         9.0592 
  45   0.0000       0.341547         9.2940 
  46   0.0000       0.365800         9.9539 
  47   0.0000       0.386035        10.5045 
  48   0.0000       0.402718        10.9585 
  49   0.0000       0.406117        11.0510 
  50   0.0000       0.418679        11.3928 
  51   0.0000       0.443201        12.0601 
  52   0.0000       0.445550        12.1240 
  53   0.0000       0.471935        12.8420 
  54   0.0000       0.475443        12.9374 
  55   0.0000       0.526512        14.3271 
  56   0.0000       0.531656        14.4671 
  57   0.0000       0.556168        15.1341 
  58   0.0000       0.620840        16.8939 
  59   0.0000       0.662605        18.0304 
  60   0.0000       0.669186        18.2095 
  61   0.0000       0.692401        18.8412 
  62   0.0000       0.762345        20.7445 
  63   0.0000       0.987951        26.8835 
  64   0.0000       0.997075        27.1318 
  65   0.0000       1.106536        30.1104 
  66   0.0000       1.123197        30.5637 
  67   0.0000       1.144199        31.1352 
  68   0.0000       1.172434        31.9036 
  69   0.0000       1.202809        32.7301 
  70   0.0000       1.202827        32.7306 
  71   0.0000       1.203073        32.7373 
  72   0.0000       1.203220        32.7413 
  73   0.0000       1.206684        32.8356 
  74   0.0000       1.208430        32.8830 
  75   0.0000       1.239895        33.7393 
  76   0.0000       1.454820        39.5877 
  77   0.0000       1.457221        39.6530 
  78   0.0000       1.483553        40.3695 
  79   0.0000       1.564083        42.5609 
  80   0.0000       1.565495        42.5993 
  81   0.0000       1.612586        43.8807 
  82   0.0000       1.615219        43.9523 
  83   0.0000       1.639980        44.6261 
  84   0.0000       1.698917        46.2299 
  85   0.0000       1.714069        46.6422 
  86   0.0000       1.717771        46.7429 
  87   0.0000       1.718639        46.7666 
  88   0.0000       1.725098        46.9423 
  89   0.0000       1.732209        47.1358 
  90   0.0000       1.749581        47.6085 
  91   0.0000       1.780225        48.4424 
  92   0.0000       1.805934        49.1420 
  93   0.0000       1.832203        49.8568 
  94   0.0000       1.833920        49.9035 
  95   0.0000       1.872388        50.9503 
  96   0.0000       1.878164        51.1074 
  97   0.0000       1.910750        51.9942 
  98   0.0000       1.915086        52.1121 
  99   0.0000       1.926629        52.4262 
 100   0.0000       1.944841        52.9218 
 101   0.0000       1.952869        53.1403 
 102   0.0000       2.029600        55.2282 
 103   0.0000       2.189976        59.5923 
 104   0.0000       2.323829        63.2346 
 105   0.0000       2.332415        63.4682 
 106   0.0000       2.378292        64.7166 
 107   0.0000       2.549433        69.3736 
 108   0.0000       2.569513        69.9200 
 109   0.0000       2.742471        74.6264 
 110   0.0000       2.749338        74.8133 
 111   0.0000       2.849484        77.5384 
 112   0.0000       2.869669        78.0877 
 113   0.0000       3.024650        82.3049 
 114   0.0000       3.113800        84.7308 
 115   0.0000       3.382430        92.0406 
 116   0.0000       3.389982        92.2461 
 117   0.0000       3.565891        97.0328 
 118   0.0000       3.565901        97.0331 
 119   0.0000       3.566112        97.0388 
 120   0.0000       3.566119        97.0390 
 121   0.0000       3.567699        97.0820 
 122   0.0000       3.568024        97.0909 
 123   0.0000       3.575834        97.3034 
 124   0.0000       3.596364        97.8620 
 125   0.0000       3.600788        97.9824 
 126   0.0000       3.682845       100.2153 
 127   0.0000       3.694748       100.5392 
 128   0.0000       3.813614       103.7737 
 129   0.0000       3.819061       103.9219 
 130   0.0000       3.944671       107.3399 
 131   0.0000       4.451554       121.1330 
 132   0.0000       4.455390       121.2373 
 133   0.0000       4.515761       122.8801 
 134   0.0000       4.522985       123.0767 
 135   0.0000       4.581084       124.6576 
 136   0.0000       4.611219       125.4777 
 137   0.0000       4.612899       125.5234 
 138   0.0000       4.769642       129.7886 
 139   0.0000       4.951814       134.7457 
 140   0.0000       8.144333       221.6186 
 141   0.0000      23.164047       630.3258 
 142   0.0000      35.277844       959.9589 
 143   0.0000      35.278918       959.9882 
 144   0.0000      35.298806       960.5293 
 145   0.0000      43.361596      1179.9290 
 146   0.0000     118.717825      3230.4762 

                    ********************************
                    * MULLIKEN POPULATION ANALYSIS *
                    ********************************

-----------------------
MULLIKEN ATOMIC CHARGES
-----------------------
   0 C :   -0.275037
   1 Br:   -0.214306
   2 H :    0.160911
   3 H :    0.166323
   4 H :    0.160040
   5 I :   -0.997930
Sum of atomic charges:   -1.0000000

--------------------------------
MULLIKEN REDUCED ORBITAL CHARGES
--------------------------------
  0 C s       :     3.222049  s :     3.222049
      pz      :     1.087697  p :     2.961226
      px      :     1.056606
      py      :     0.816922
      dz2     :     0.016449  d :     0.087203
      dxz     :     0.009510
      dyz     :     0.021522
      dx2y2   :     0.024392
      dxy     :     0.015329
      f0      :     0.000263  f :     0.004560
      f+1     :     0.000866
      f-1     :     0.001009
      f+2     :     0.000435
      f-2     :     0.000308
      f+3     :     0.001134
      f-3     :     0.000545
  1 Brs       :     7.907197  s :     7.907197
      pz      :     5.959757  p :    17.250964
      px      :     5.892443
      py      :     5.398764
      dz2     :     2.007286  d :    10.049435
      dxz     :     2.001470
      dyz     :     2.010116
      dx2y2   :     2.016298
      dxy     :     2.014264
      f0      :     0.000629  f :     0.006711
      f+1     :     0.000230
      f-1     :     0.001114
      f+2     :     0.000785
      f-2     :     0.000544
      f+3     :     0.001959
      f-3     :     0.001450
  2 H s       :     0.816789  s :     0.816789
      pz      :     0.010637  p :     0.022300
      px      :     0.004145
      py      :     0.007518
  3 H s       :     0.811695  s :     0.811695
      pz      :     0.012229  p :     0.021982
      px      :     0.005361
      py      :     0.004392
  4 H s       :     0.817727  s :     0.817727
      pz      :     0.003640  p :     0.022233
      px      :     0.015480
      py      :     0.003113
  5 I s       :     3.997674  s :     3.997674
      pz      :     4.000408  p :    11.999877
      px      :     3.999762
      py      :     3.999707
      dz2     :     2.000059  d :    10.000369
      dxz     :     2.000124
      dyz     :     2.000094
      dx2y2   :     2.000017
      dxy     :     2.000076
      f0      :     0.000002  f :     0.000010
      f+1     :     0.000002
      f-1     :     0.000001
      f+2     :     0.000001
      f-2     :     0.000003
      f+3     :     0.000000
      f-3     :     0.000001


                     *******************************
                     * LOEWDIN POPULATION ANALYSIS *
                     *******************************

----------------------
LOEWDIN ATOMIC CHARGES
----------------------
   0 C :   -0.478232
   1 Br:    0.130751
   2 H :    0.107883
   3 H :    0.109862
   4 H :    0.109138
   5 I :   -0.979401

-------------------------------
LOEWDIN REDUCED ORBITAL CHARGES
-------------------------------
  0 C s       :     2.942592  s :     2.942592
      pz      :     1.128520  p :     3.229827
      px      :     1.109866
      py      :     0.991441
      dz2     :     0.047627  d :     0.285411
      dxz     :     0.023252
      dyz     :     0.076228
      dx2y2   :     0.083867
      dxy     :     0.054438
      f0      :     0.001567  f :     0.020402
      f+1     :     0.002979
      f-1     :     0.003359
      f+2     :     0.001571
      f-2     :     0.003120
      f+3     :     0.004653
      f-3     :     0.003153
  1 Brs       :     7.611198  s :     7.611198
      pz      :     5.899020  p :    17.122252
      px      :     5.837114
      py      :     5.386118
      dz2     :     2.015639  d :    10.122046
      dxz     :     2.004719
      dyz     :     2.029037
      dx2y2   :     2.038073
      dxy     :     2.034579
      f0      :     0.001349  f :     0.013753
      f+1     :     0.000472
      f-1     :     0.002150
      f+2     :     0.001655
      f-2     :     0.001272
      f+3     :     0.003505
      f-3     :     0.003350
  2 H s       :     0.826757  s :     0.826757
      pz      :     0.030249  p :     0.065361
      px      :     0.013561
      py      :     0.021550
  3 H s       :     0.825288  s :     0.825288
      pz      :     0.034632  p :     0.064850
      px      :     0.016764
      py      :     0.013455
  4 H s       :     0.825750  s :     0.825750
      pz      :     0.012320  p :     0.065112
      px      :     0.042789
      py      :     0.010003
  5 I s       :     3.995308  s :     3.995308
      pz      :     3.988346  p :    11.983116
      px      :     3.995535
      py      :     3.999235
      dz2     :     2.000192  d :    10.000956
      dxz     :     2.000269
      dyz     :     2.000257
      dx2y2   :     2.000028
      dxy     :     2.000210
      f0      :     0.000004  f :     0.000022
      f+1     :     0.000004
      f-1     :     0.000002
      f+2     :     0.000001
      f-2     :     0.000007
      f+3     :     0.000000
      f-3     :     0.000002


                      *****************************
                      * MAYER POPULATION ANALYSIS *
                      *****************************

  NA   - Mulliken gross atomic population
  ZA   - Total nuclear charge
  QA   - Mulliken gross atomic charge
  VA   - Mayer's total valence
  BVA  - Mayer's bonded valence
  FA   - Mayer's free valence

  ATOM       NA         ZA         QA         VA         BVA        FA
  0 C      6.2750     6.0000    -0.2750     3.8661     3.8661     0.0000
  1 Br    35.2143    35.0000    -0.2143     0.9755     0.9755    -0.0000
  2 H      0.8391     1.0000     0.1609     0.9677     0.9677     0.0000
  3 H      0.8337     1.0000     0.1663     0.9596     0.9596     0.0000
  4 H      0.8400     1.0000     0.1600     0.9679     0.9679    -0.0000
  5 I     25.9979    25.0000    -0.9979     0.0027     0.0027    -0.0000

  Mayer bond orders larger than 0.100000
B(  0-C ,  1-Br) :   0.9732 B(  0-C ,  2-H ) :   0.9677 B(  0-C ,  3-H ) :   0.9653 
B(  0-C ,  4-H ) :   0.9685 


------------------
HIRSHFELD ANALYSIS
------------------

Total integrated alpha density =     35.000417258
Total integrated beta density  =     35.000417258

  ATOM     CHARGE      SPIN    
   0 C    0.004365    0.000000
   1 Br  -0.181954    0.000000
   2 H    0.040940    0.000000
   3 H    0.050654    0.000000
   4 H    0.043165    0.000000
   5 I   -0.958003    0.000000

  TOTAL  -1.000835    0.000000

-------
TIMINGS
-------

Total SCF time: 0 days 0 hours 0 min 15 sec 

Total time                  ....      15.255 sec
Sum of individual times     ....      15.050 sec  ( 98.7%)

Fock matrix formation       ....      13.570 sec  ( 89.0%)
Diagonalization             ....       0.033 sec  (  0.2%)
Density matrix formation    ....       0.004 sec  (  0.0%)
Population analysis         ....       0.019 sec  (  0.1%)
Initial guess               ....       1.344 sec  (  8.8%)
Orbital Transformation      ....       0.000 sec  (  0.0%)
Orbital Orthonormalization  ....       0.000 sec  (  0.0%)
DIIS solution               ....       0.009 sec  (  0.1%)
SOSCF solution              ....       0.007 sec  (  0.0%)
[1632406883.804222] [comp0805:198906:0]            sys.c:618  UCX  ERROR shmget(size=2097152 flags=0xfb0) for mm_recv_desc failed: Operation not permitted, please check shared memory limits by 'ipcs -l'
[1632406883.810155] [comp0805:198904:0]            sys.c:618  UCX  ERROR shmget(size=2097152 flags=0xfb0) for mm_recv_desc failed: Operation not permitted, please check shared memory limits by 'ipcs -l'
[1632406883.837963] [comp0805:198905:0]            sys.c:618  UCX  ERROR shmget(size=2097152 flags=0xfb0) for mm_recv_desc failed: Operation not permitted, please check shared memory limits by 'ipcs -l'
[1632406883.838984] [comp0805:198907:0]            sys.c:618  UCX  ERROR shmget(size=2097152 flags=0xfb0) for mm_recv_desc failed: Operation not permitted, please check shared memory limits by 'ipcs -l'
[1632406883.916256] [comp0805:198904:0]            sys.c:618  UCX  ERROR shmget(size=2097152 flags=0xb80) for ucp_am_bufs failed: Operation not permitted, please check shared memory limits by 'ipcs -l'
[1632406883.916887] [comp0805:198906:0]            sys.c:618  UCX  ERROR shmget(size=2097152 flags=0xb80) for ucp_am_bufs failed: Operation not permitted, please check shared memory limits by 'ipcs -l'


           ************************************************************
           *        Program running with 4 parallel MPI-processes     *
           *              working on a common directory               *
           ************************************************************
[1632406883.922156] [comp0805:198905:0]            sys.c:618  UCX  ERROR shmget(size=2097152 flags=0xb80) for ucp_am_bufs failed: Operation not permitted, please check shared memory limits by 'ipcs -l'


------------------------------------------------------------------------------- 
                              ORCA-MATRIX DRIVEN CI                            
------------------------------------------------------------------------------- 

--------------------------------
AUTOMATIC CHOICE OF INCORE LEVEL
--------------------------------

Memory available                           ...   2000.00 MB
Memory needed for S+T                      ...     66.32 MB
Memory needed for J+K                      ...    133.04 MB
Memory needed for DIIS                     ...    928.51 MB
Memory needed for 3-ext                    ...    225.09 MB
Memory needed for 4-ext                    ...    605.61 MB
Memory needed for triples                  ...     53.59 MB
 -> Final InCoreLevel    ... 5
 -> check shows that triples correction can be computed


Wavefunction type
-----------------
Correlation treatment                      ...      CCSD     
Single excitations                         ... ON
Orbital optimization                       ... OFF
Calculation of Z vector                    ... OFF
Calculation of Brueckner orbitals          ... OFF
Perturbative triple excitations            ... ON
Calculation of F12 correction              ... OFF
Frozen core treatment                      ... chemical core (28 el)
Reference Wavefunction                     ... RHF
  Internal Orbitals:    14 ...   34 ( 21 MO's/ 42 electrons)
  Virtual  Orbitals:    35 ...  146 (112 MO's              )
Number of AO's                             ...    147
Number of electrons                        ...     70
Number of correlated electrons             ...     42

Algorithmic settings
--------------------
Integral transformation                    ... AO direct full transformation
K(C) Formation                             ... FULL-MO TRAFO
Maximum number of iterations               ...        50
Convergence tolerance (max. residuum)      ... 2.500e-05
Level shift for amplitude update           ... 2.000e-01
Maximum number of DIIS vectors             ...         7
DIIS turned on at iteration                ...         0
Damping before turning on DIIS             ...     0.500
Damping after turning on DIIS              ...     0.000
Pair specific amplitude update             ... OFF
Natural orbital iterations                 ... OFF
Perturbative natural orbital generation    ... OFF
Printlevel                                 ... 2

Memory handling:
----------------
Maximum memory for working arrays          ...   2000 MB
Data storage in matrix containers          ... UNCOMPRESSED
Data type for integral storage             ... DOUBLE
In-Core Storage of quantities:
   Amplitudes+Sigma Vector      ... YES
   J+K operators                ... YES
   DIIS vectors                 ... YES
   3-external integrals         ... YES
   4-external integrals         ... YES


Initializing the integral package          ... done
Warning: reference  - re-canonicalizations have been set to INT 1 VIRT 1

--------------------------
CLOSED-SHELL FOCK OPERATOR
--------------------------

MDCI_FockCPCM: ediel   =  -0.098218797000
MDCI_FockCPCM: <VCPCM> =  -5.115235117199
<ss|ss>:        43071 b         4717 skpd ( 11.0%)    0.003 s ( 0.000 ms/b)
<ss|sp>: [1632406884.047442] [comp0805:198907:0]            sys.c:618  UCX  ERROR shmget(size=2097152 flags=0xb80) for ucp_am_bufs failed: Operation not permitted, please check shared memory limits by 'ipcs -l'
      104601 b        12613 skpd ( 12.1%)    0.018 s ( 0.000 ms/b)
<ss|sd>:        59479 b         8090 skpd ( 13.6%)    0.014 s ( 0.000 ms/b)
<ss|sf>:        24612 b         4112 skpd ( 16.7%)    0.005 s ( 0.000 ms/b)
<ss|pp>:        35746 b         4246 skpd ( 11.9%)    0.010 s ( 0.000 ms/b)
<ss|pd>:        37504 b         5085 skpd ( 13.6%)    0.014 s ( 0.000 ms/b)
<ss|pf>:        16408 b         3196 skpd ( 19.5%)    0.006 s ( 0.000 ms/b)
<ss|dd>:        12013 b         1685 skpd ( 14.0%)    0.010 s ( 0.001 ms/b)
<ss|df>:         9376 b         2016 skpd ( 21.5%)    0.007 s ( 0.001 ms/b)
<ss|ff>:         2344 b          242 skpd ( 10.3%)    0.002 s ( 0.001 ms/b)
<sp|sp>:        63903 b         7952 skpd ( 12.4%)    0.016 s ( 0.000 ms/b)
<sp|sd>:        72471 b        11090 skpd ( 15.3%)    0.024 s ( 0.000 ms/b)
<sp|sf>:        29988 b         5459 skpd ( 18.2%)    0.009 s ( 0.000 ms/b)
<sp|pp>:        43554 b         4816 skpd ( 11.1%)    0.022 s ( 0.001 ms/b)
<sp|pd>:        45696 b         6147 skpd ( 13.5%)    0.035 s ( 0.001 ms/b)
<sp|pf>:        19992 b         3964 skpd ( 19.8%)    0.015 s ( 0.001 ms/b)
<sp|dd>:        14637 b         2204 skpd ( 15.1%)    0.027 s ( 0.002 ms/b)
<sp|df>:        11424 b         2661 skpd ( 23.3%)    0.018 s ( 0.002 ms/b)
<sp|ff>:         2856 b          318 skpd ( 11.1%)    0.004 s ( 0.002 ms/b)
<sd|sd>:        20706 b         3551 skpd ( 17.1%)    0.014 s ( 0.001 ms/b)
<sd|sf>:        17052 b         3547 skpd ( 20.8%)    0.010 s ( 0.001 ms/b)
<sd|pp>:        24766 b         3650 skpd ( 14.7%)    0.023 s ( 0.001 ms/b)
<sd|pd>:        25984 b         4233 skpd ( 16.3%)    0.040 s ( 0.002 ms/b)
<sd|pf>:        11368 b         2639 skpd ( 23.2%)    0.017 s ( 0.002 ms/b)
<sd|dd>:         8323 b         1355 skpd ( 16.3%)    0.034 s ( 0.005 ms/b)
<sd|df>:         6496 b         1698 skpd ( 26.1%)    0.024 s ( 0.005 ms/b)
<sd|ff>:         1624 b          249 skpd ( 15.3%)    0.006 s ( 0.004 ms/b)
<sf|sf>:         3570 b          842 skpd ( 23.6%)    0.003 s ( 0.001 ms/b)
<sf|pp>:        10248 b         1824 skpd ( 17.8%)    0.012 s ( 0.001 ms/b)
<sf|pd>:        10752 b         2148 skpd ( 20.0%)    0.021 s ( 0.002 ms/b)
<sf|pf>:         4704 b         1199 skpd ( 25.5%)    0.010 s ( 0.003 ms/b)
<sf|dd>:         3444 b          713 skpd ( 20.7%)    0.018 s ( 0.007 ms/b)
<sf|df>:         2688 b          842 skpd ( 31.3%)    0.014 s ( 0.008 ms/b)
<sf|ff>:          672 b          134 skpd ( 19.9%)    0.003 s ( 0.006 ms/b)
<pp|pp>:         7503 b          676 skpd (  9.0%)    0.011 s ( 0.002 ms/b)
<pp|pd>:        15616 b         1748 skpd ( 11.2%)    0.034 s ( 0.002 ms/b)
<pp|pf>:         6832 b         1195 skpd ( 17.5%)    0.015 s ( 0.003 ms/b)
<pp|dd>:         5002 b          671 skpd ( 13.4%)    0.027 s ( 0.006 ms/b)
<pp|df>:         3904 b          839 skpd ( 21.5%)    0.020 s ( 0.007 ms/b)
<pp|ff>:          976 b           97 skpd (  9.9%)    0.005 s ( 0.005 ms/b)
<pd|pd>:         8256 b         1069 skpd ( 12.9%)    0.041 s ( 0.006 ms/b)
<pd|pf>:         7168 b         1453 skpd ( 20.3%)    0.030 s ( 0.005 ms/b)
<pd|dd>:         5248 b          742 skpd ( 14.1%)    0.057 s ( 0.013 ms/b)
<pd|df>:         4096 b          991 skpd ( 24.2%)    0.044 s ( 0.014 ms/b)
<pd|ff>:         1024 b          142 skpd ( 13.9%)    0.010 s ( 0.012 ms/b)
<pf|pf>:         1596 b          419 skpd ( 26.3%)    0.008 s ( 0.007 ms/b)
<pf|dd>:         2296 b          506 skpd ( 22.0%)    0.026 s ( 0.015 ms/b)
<pf|df>:         1792 b          588 skpd ( 32.8%)    0.021 s ( 0.018 ms/b)
<pf|ff>:          448 b           95 skpd ( 21.2%)    0.006 s ( 0.017 ms/b)
<dd|dd>:          861 b          115 skpd ( 13.4%)    0.026 s ( 0.034 ms/b)
<dd|df>:         1312 b          297 skpd ( 22.6%)    0.034 s ( 0.033 ms/b)
<dd|ff>:          328 b           50 skpd ( 15.2%)    0.007 s ( 0.027 ms/b)
<df|df>:          528 b          191 skpd ( 36.2%)    0.015 s ( 0.044 ms/b)
<df|ff>:          256 b           79 skpd ( 30.9%)    0.006 s ( 0.035 ms/b)
<ff|ff>:           36 b            8 skpd ( 22.2%)    0.002 s ( 0.067 ms/b)
Recanonicalizing the internal orbitals
Recanonicalizing the virtual orbitals
Time needed for Fock operator              ...            1.123 sec
Reference energy                           ...  -2908.883971984
<ss|**>: 
------------------------------
PARTIAL COULOMB TRANSFORMATION
------------------------------

Transformation type                        ... one-operator
Dimension of the basis                     ...  147
Number of internal MOs                     ...  133 (14-146)
Pair cutoff                                ... 0.000e+00 Eh
Number of AO pairs included in the trafo   ... 10853
Total Number of distinct AO pairs          ... 10878
Memory devoted for trafo                   ... 2000.0 MB 
Max. Number of MO pairs treated together   ... 24098      
Max. Number of MOs treated per batch       ...  163      
Number Format for Storage                  ... Double (8 Byte)
AO-integral source                         ... DIRECT
Integral package used                      ... LIBINT

Starting integral evaluation:
      387932 b        0 skpd     0.096 s (  0.000 ms/b)
<sp|**>:       472668 b        0 skpd     0.270 s (  0.001 ms/b)
<sd|**>:       268772 b        0 skpd     0.260 s (  0.001 ms/b)
<sf|**>:       111216 b        0 skpd     0.146 s (  0.001 ms/b)
<pp|**>:       161528 b        0 skpd     0.255 s (  0.002 ms/b)
<pd|**>:       169472 b        0 skpd     0.481 s (  0.003 ms/b)
<pf|**>:        74144 b        0 skpd     0.234 s (  0.003 ms/b)
<dd|**>:        54284 b        0 skpd     0.334 s (  0.006 ms/b)
<df|**>:        42368 b        0 skpd     0.300 s (  0.007 ms/b)
<ff|**>:        10592 b        0 skpd     0.074 s (  0.007 ms/b)
Closing buffer AOJ ( 0.16 GB; CompressionRatio= 1.00)
Collecting buffer AOJ 
    ... done with AO integral generation
Number of MO pairs included in the trafo   ... 8911
    ... Now sorting integrals
IBATCH = 1 of  1
Closing buffer JAO ( 0.18 GB; CompressionRatio= 1.00)
Collecting buffer JAO 
TOTAL TIME for half transformation         ...     4.077 sec
AO-integral generation                     ...     1.813 sec
Half transformation                        ...     0.645 sec
J-integral sorting                         ...     1.379 sec

-------------------------- SECOND HALF TRANSFORMATION -------------------------
Formation of (pq|rs)                       ... ok (     0.853 sec)
Integral sorting                           ... ok (     1.949 sec)

------------------
CLOSED SHELL GUESS
------------------

Initial guess performed in     0.027 sec
E(0)                                       ...  -2908.883971984
E(MP2)                                     ...     -0.954079049
Initial E(tot)                             ...  -2909.838051033
<T|T>                                      ...      0.252217839
Number of pairs included                   ... 231
Total number of pairs                      ... 231

------------------------------------------------
                  RHF COUPLED CLUSTER ITERATIONS
------------------------------------------------

Number of amplitudes to be optimized       ... 2900016

Iter       E(tot)           E(Corr)          Delta-E          Residual     Time
  0  -2909.838051033     -0.954079049      0.000000000      0.018228173    3.56
                           *** Turning on DIIS ***
  1  -2909.808800990     -0.924829006      0.029250043      0.004766775    4.28
  2  -2909.826764615     -0.942792631     -0.017963625      0.002155184    4.40
  3  -2909.830709498     -0.946737514     -0.003944883      0.000781846    4.47
  4  -2909.831219488     -0.947247504     -0.000509990      0.000278701    4.48
  5  -2909.831286550     -0.947314566     -0.000067062      0.000114184    4.48
  6  -2909.831297285     -0.947325301     -0.000010734      0.000050708    4.57
  7  -2909.831297319     -0.947325335     -0.000000034      0.000017641    4.52
               --- The Coupled-Cluster iterations have converged ---

----------------------
COUPLED CLUSTER ENERGY
----------------------

E(0)                                       ...  -2908.883971984
E(CORR)                                    ...     -0.947325335
E(TOT)                                     ...  -2909.831297319
Singles Norm <S|S>**1/2                    ...      0.040620409  
T1 diagnostic                              ...      0.006267865  

------------------
LARGEST AMPLITUDES
------------------
  29-> 35  29-> 35       0.042554
  33-> 48  33-> 48       0.037505
  32-> 48  32-> 48       0.035116
  32-> 50  32-> 50       0.030850
  31-> 54  31-> 54       0.030064
  30-> 53  30-> 53       0.029550
  28-> 60  28-> 60       0.029005
  32-> 40  32-> 40       0.027198
  34-> 41  34-> 41       0.026735
  32-> 49  32-> 49       0.026483
  27-> 59  27-> 59       0.025865
  29-> 35  29-> 39       0.023244
  29-> 39  29-> 35       0.023244
  34-> 46  34-> 46       0.022685
  30-> 54  30-> 54       0.022497
  31-> 53  31-> 53       0.021800


        !!!!!!!!!!!!!!!!!!!!!!!!!!!!!!!!!!!!!!!!!!!!!!!!!!!!!!!!!!!!!!!!!!!!!!!!!! 
        !  Warning: Densities are linearized densities !                         !
        !!!!!!!!!!!!!!!!!!!!!!!!!!!!!!!!!!!!!!!!!!!!!!!!!!!!!!!!!!!!!!!!!!!!!!!!!! 

Trace of internal density part =     -0.548124775
Trace of external density part =      0.548124775
----------------------
RHF TRIPLES CORRECTION (Algorithm 1)
----------------------

Multiplier for the singles contribution    ...      1.000000000

10% done
20% done
30% done
40% done
50% done
60% done
70% done
80% done
90% done

Triples Correction (T)                     ...     -0.025295720
Scaling of triples based on CCSD energies (Peterson et al. Molecular Physics 113, 1551 (2015))
E(T*) = f*E(T) where f = E(F12-CCSD)/E(CCSD) 
f = CCSD (with F12)/ CCSD (without F12)    ...      1.000000000
Scaled triples correction (T)              ...     -0.025295720

Final correlation energy                   ...     -0.972621055
E(CCSD)                                    ...  -2909.831297319
E(CCSD(T))                                 ...  -2909.856593039

NORM  =      1.275712405 sqrt=     1.129474393
W(HF) =      0.783875736
------------------------------------------------------------------------------
                           ORCA POPULATION ANALYSIS
------------------------------------------------------------------------------
Input electron density              ... manual_reactants_348_sp.mdcip
BaseName (.gbw .S,...)              ... manual_reactants_348_sp

                    ********************************
                    * MULLIKEN POPULATION ANALYSIS *
                    ********************************

-----------------------
MULLIKEN ATOMIC CHARGES
-----------------------
   0 C :   -0.363050
   1 Br:   -0.168163
   2 H :    0.173964
   3 H :    0.179027
   4 H :    0.173509
   5 I :   -0.995288
Sum of atomic charges:   -1.0000000

--------------------------------
MULLIKEN REDUCED ORBITAL CHARGES
--------------------------------
  0 C s       :     3.237874  s :     3.237874
      pz      :     1.095654  p :     3.010774
      px      :     1.067137
      py      :     0.847983
      dz2     :     0.019527  d :     0.105743
      dxz     :     0.014940
      dyz     :     0.024897
      dx2y2   :     0.026207
      dxy     :     0.020171
      f0      :     0.000969  f :     0.008659
      f+1     :     0.001404
      f-1     :     0.001508
      f+2     :     0.001115
      f-2     :     0.000895
      f+3     :     0.001556
      f-3     :     0.001213
  1 Brs       :     7.900982  s :     7.900982
      pz      :     5.918590  p :    17.117109
      px      :     5.850041
      py      :     5.348479
      dz2     :     2.023899  d :    10.129241
      dxz     :     2.020025
      dyz     :     2.026561
      dx2y2   :     2.030261
      dxy     :     2.028496
      f0      :     0.002652  f :     0.020830
      f+1     :     0.002248
      f-1     :     0.003119
      f+2     :     0.002799
      f-2     :     0.002579
      f+3     :     0.003931
      f-3     :     0.003503
  2 H s       :     0.801743  s :     0.801743
      pz      :     0.010696  p :     0.024293
      px      :     0.005536
      py      :     0.008061
  3 H s       :     0.796939  s :     0.796939
      pz      :     0.011908  p :     0.024034
      px      :     0.006504
      py      :     0.005621
  4 H s       :     0.802261  s :     0.802261
      pz      :     0.005126  p :     0.024230
      px      :     0.014448
      py      :     0.004656
  5 I s       :     3.984951  s :     3.984951
      pz      :     3.961739  p :    11.886936
      px      :     3.962278
      py      :     3.962919
      dz2     :     2.011533  d :    10.057688
      dxz     :     2.011577
      dyz     :     2.011569
      dx2y2   :     2.011472
      dxy     :     2.011538
      f0      :     0.009392  f :     0.065712
      f+1     :     0.009394
      f-1     :     0.009387
      f+2     :     0.009386
      f-2     :     0.009390
      f+3     :     0.009380
      f-3     :     0.009381


                     *******************************
                     * LOEWDIN POPULATION ANALYSIS *
                     *******************************

----------------------
LOEWDIN ATOMIC CHARGES
----------------------
   0 C :   -0.523907
   1 Br:    0.153179
   2 H :    0.114980
   3 H :    0.117195
   4 H :    0.116336
   5 I :   -0.977783

-------------------------------
LOEWDIN REDUCED ORBITAL CHARGES
-------------------------------
  0 C s       :     2.944106  s :     2.944106
      pz      :     1.128552  p :     3.246468
      px      :     1.111722
      py      :     1.006193
      dz2     :     0.051591  d :     0.306707
      dxz     :     0.028851
      dyz     :     0.080597
      dx2y2   :     0.086764
      dxy     :     0.058904
      f0      :     0.002395  f :     0.026627
      f+1     :     0.003944
      f-1     :     0.004372
      f+2     :     0.002449
      f-2     :     0.003946
      f+3     :     0.005579
      f-3     :     0.003942
  1 Brs       :     7.608229  s :     7.608229
      pz      :     5.861436  p :    17.005093
      px      :     5.799083
      py      :     5.344575
      dz2     :     2.033089  d :    10.204544
      dxz     :     2.023237
      dyz     :     2.045044
      dx2y2   :     2.053197
      dxy     :     2.049976
      f0      :     0.003454  f :     0.028955
      f+1     :     0.002528
      f-1     :     0.004376
      f+2     :     0.003740
      f-2     :     0.003388
      f+3     :     0.005973
      f-3     :     0.005497
  2 H s       :     0.813587  s :     0.813587
      pz      :     0.032254  p :     0.071433
      px      :     0.015552
      py      :     0.023626
  3 H s       :     0.811834  s :     0.811834
      pz      :     0.036610  p :     0.070971
      px      :     0.018792
      py      :     0.015569
  4 H s       :     0.812477  s :     0.812477
      pz      :     0.014258  p :     0.071187
      px      :     0.044728
      py      :     0.012201
  5 I s       :     3.982519  s :     3.982519
      pz      :     3.950426  p :    11.871329
      px      :     3.958371
      py      :     3.962532
      dz2     :     2.011633  d :    10.058194
      dxz     :     2.011675
      dyz     :     2.011731
      dx2y2   :     2.011478
      dxy     :     2.011677
      f0      :     0.009399  f :     0.065741
      f+1     :     0.009404
      f-1     :     0.009389
      f+2     :     0.009389
      f-2     :     0.009397
      f+3     :     0.009381
      f-3     :     0.009383


------------------
HIRSHFELD ANALYSIS
------------------

Total integrated alpha density =     35.000441838
Total integrated beta density  =     35.000441838

  ATOM     CHARGE      SPIN  
   0 C   -0.032299    0.000000
   1 Br  -0.154070    0.000000
   2 H    0.043210    0.000000
   3 H    0.053208    0.000000
   4 H    0.045547    0.000000
   5 I   -0.956480    0.000000

  TOTAL  -1.000884    0.000000     96452.1


                      *****************************
                      * MAYER POPULATION ANALYSIS *
                      *****************************

  NA   - Mulliken gross atomic population
  ZA   - Total nuclear charge
  QA   - Mulliken gross atomic charge
  VA   - Mayer's total valence
  BVA  - Mayer's bonded valence
  FA   - Mayer's free valence

  ATOM       NA         ZA         QA         VA         BVA        FA
  0 C      6.3631     6.0000    -0.3631     4.0254     3.6408     0.3845
  1 Br    35.1682    35.0000    -0.1682     1.5836     0.9177     0.6659
  2 H      0.8260     1.0000     0.1740     0.9724     0.9103     0.0620
  3 H      0.8210     1.0000     0.1790     0.9638     0.9027     0.0611
  4 H      0.8265     1.0000     0.1735     0.9722     0.9102     0.0619
  5 I     25.9953    25.0000    -0.9953     0.9203     0.0072     0.9131

  Mayer bond orders larger than 0.100000
B(  0-C ,  1-Br) :   0.9157 B(  0-C ,  2-H ) :   0.9106 B(  0-C ,  3-H ) :   0.9090 
B(  0-C ,  4-H ) :   0.9114 



------------------------------------------------------------------------------- 
                                     TIMINGS                                   
------------------------------------------------------------------------------- 


Total execution time                   ...       85.047 sec

Fock Matrix Formation                  ...        1.123 sec (  1.3%)
Initial Guess                          ...        0.027 sec (  0.0%)
DIIS Solver                            ...        1.484 sec (  1.7%)
State Vector Update                    ...        0.094 sec (  0.1%)
Sigma-vector construction              ...       33.187 sec ( 39.0%)
  <0|H|D>                              ...        0.029 sec (  0.1% of sigma)
  <D|H|D>(0-ext)                       ...        3.490 sec ( 10.5% of sigma)
  <D|H|D>(2-ext Fock)                  ...        0.060 sec (  0.2% of sigma)
  <D|H|D>(2-ext)                       ...        4.071 sec ( 12.3% of sigma)
  <D|H|D>(4-ext)                       ...        2.568 sec (  7.7% of sigma)
  <D|H|D>(4-ext-corr)                  ...        2.848 sec (  8.6% of sigma)
  <S|H|0>                              ...        0.022 sec (  0.1% of sigma)
  <S|H|S>                              ...        0.051 sec (  0.2% of sigma)
  <S|H|D>(1-ext)                       ...        0.589 sec (  1.8% of sigma)
  <D|H|S>(1-ext)                       ...        0.876 sec (  2.6% of sigma)
  <S|H|D>(3-ext)                       ...        2.196 sec (  6.6% of sigma)
  Fock-dressing                        ...        5.130 sec ( 15.5% of sigma)
  (ik|jl)-dressing                     ...        4.283 sec ( 12.9% of sigma)
  (ij|ab),(ia|jb)-dressing             ...        6.634 sec ( 20.0% of sigma)
  Pair energies                        ...        0.041 sec (  0.1% of sigma)
Total Time for computing (T)           ...       38.286 sec ( 45.0% of ALL)
  I/O of integral and amplitudes       ...        2.795 sec (  7.3% of (T))
  N**6 sorting step                    ...       11.416 sec ( 29.8% of (T))
  External N**7 contributions          ...       12.780 sec ( 33.4% of (T))
  Internal N**7 contributions          ...        4.701 sec ( 12.3% of (T))
  N**6 triples energy contributions    ...        6.593 sec ( 17.2% of (T))
One-particle density matrix            ...        0.085 sec (  0.1%)


-------------------------   --------------------
FINAL SINGLE POINT ENERGY     -2909.856593038746
-------------------------   --------------------


                            ***************************************
                            *     ORCA property calculations      *
                            ***************************************

                                    ---------------------
                                    Active property flags
                                    ---------------------
   (+) Dipole Moment


------------------------------------------------------------------------------
                       ORCA ELECTRIC PROPERTIES CALCULATION
------------------------------------------------------------------------------

Dipole Moment Calculation                       ... on
Quadrupole Moment Calculation                   ... off
Polarizability Calculation                      ... off
GBWName                                         ... manual_reactants_348_sp.gbw
Electron density file                           ... manual_reactants_348_sp.scfp
The origin for moment calculation is the CENTER OF MASS  = (-0.108325,  0.099126 -0.315688)

-------------
DIPOLE MOMENT
-------------
                                X             Y             Z
Electronic contribution:     66.97635      28.24789      87.74077
Nuclear contribution   :    -68.69293     -28.29428     -90.59350
                        -----------------------------------------
Total Dipole Moment    :     -1.71658      -0.04639      -2.85272
                        -----------------------------------------
Magnitude (a.u.)       :      3.32969
Magnitude (Debye)      :      8.46340



--------------------
Rotational spectrum 
--------------------
 
Rotational constants in cm-1:     0.362036     0.016017     0.015384 
Rotational constants in MHz : 10853.562315   480.179651   461.202284 

 Dipole components along the rotational axes: 
x,y,z [a.u.] :    -3.142525     1.100625     0.000558 
x,y,z [Debye]:    -7.987664     2.797567     0.001419 

 

                           *** MDCI DENSITY ***

------------------------------------------------------------------------------
                       ORCA ELECTRIC PROPERTIES CALCULATION
------------------------------------------------------------------------------

Dipole Moment Calculation                       ... on
Quadrupole Moment Calculation                   ... off
Polarizability Calculation                      ... off
GBWName                                         ... manual_reactants_348_sp.gbw
Electron density file                           ... manual_reactants_348_sp.mdcip
The origin for moment calculation is the CENTER OF MASS  = (-0.108325,  0.099126 -0.315688)

-------------
DIPOLE MOMENT
-------------
                                X             Y             Z
Electronic contribution:     66.94165      28.14119      87.77677
Nuclear contribution   :    -68.69293     -28.29428     -90.59350
                        -----------------------------------------
Total Dipole Moment    :     -1.75128      -0.15308      -2.81672
                        -----------------------------------------
Magnitude (a.u.)       :      3.32030
Magnitude (Debye)      :      8.43952



--------------------
Rotational spectrum 
--------------------
 
Rotational constants in cm-1:     0.362036     0.016017     0.015384 
Rotational constants in MHz : 10853.562315   480.179651   461.202284 

 Dipole components along the rotational axes: 
x,y,z [a.u.] :    -3.170467     0.986154     0.000200 
x,y,z [Debye]:    -8.058686     2.506605     0.000509 

 
[1632406970.507269] [comp0805:198960:0]            sys.c:618  UCX  ERROR shmget(size=2097152 flags=0xfb0) for mm_recv_desc failed: Operation not permitted, please check shared memory limits by 'ipcs -l'
[1632406970.516200] [comp0805:198962:0]            sys.c:618  UCX  ERROR shmget(size=2097152 flags=0xfb0) for mm_recv_desc failed: Operation not permitted, please check shared memory limits by 'ipcs -l'
[1632406970.540115] [comp0805:198963:0]            sys.c:618  UCX  ERROR shmget(size=2097152 flags=0xfb0) for mm_recv_desc failed: Operation not permitted, please check shared memory limits by 'ipcs -l'
[1632406970.540961] [comp0805:198961:0]            sys.c:618  UCX  ERROR shmget(size=2097152 flags=0xfb0) for mm_recv_desc failed: Operation not permitted, please check shared memory limits by 'ipcs -l'
[1632406970.548950] [comp0805:198962:0]            sys.c:618  UCX  ERROR shmget(size=2097152 flags=0xb80) for ucp_am_bufs failed: Operation not permitted, please check shared memory limits by 'ipcs -l'
[1632406970.548993] [comp0805:198960:0]            sys.c:618  UCX  ERROR shmget(size=2097152 flags=0xb80) for ucp_am_bufs failed: Operation not permitted, please check shared memory limits by 'ipcs -l'
[1632406970.549838] [comp0805:198963:0]            sys.c:618  UCX  ERROR shmget(size=2097152 flags=0xb80) for ucp_am_bufs failed: Operation not permitted, please check shared memory limits by 'ipcs -l'
[1632406970.552814] [comp0805:198961:0]            sys.c:618  UCX  ERROR shmget(size=2097152 flags=0xb80) for ucp_am_bufs failed: Operation not permitted, please check shared memory limits by 'ipcs -l'

Timings for individual modules:

Sum of individual times         ...      105.169 sec (=   1.753 min)
GTO integral calculation        ...        1.348 sec (=   0.022 min)   1.3 %
SCF iterations                  ...       16.179 sec (=   0.270 min)  15.4 %
MDCI module                     ...       87.642 sec (=   1.461 min)  83.3 %
                             ****ORCA TERMINATED NORMALLY****
TOTAL RUN TIME: 0 days 0 hours 1 minutes 46 seconds 450 msec
