
                                 *****************
                                 * O   R   C   A *
                                 *****************

           --- An Ab Initio, DFT and Semiempirical electronic structure package ---

                  #######################################################
                  #                        -***-                        #
                  #          Department of theory and spectroscopy      #
                  #               Directorship: Frank Neese             #
                  #        Max Planck Institute fuer Kohlenforschung    #
                  #                Kaiser Wilhelm Platz 1               #
                  #                 D-45470 Muelheim/Ruhr               #
                  #                      Germany                        #
                  #                                                     #
                  #                  All rights reserved                #
                  #                        -***-                        #
                  #######################################################


                         Program Version 4.2.1 -  RELEASE  -


 With contributions from (in alphabetic order):
   Daniel Aravena         : Magnetic Suceptibility
   Michael Atanasov       : Ab Initio Ligand Field Theory (pilot matlab implementation)
   Alexander A. Auer      : GIAO ZORA, VPT2
   Ute Becker             : Parallelization
   Giovanni Bistoni       : ED, misc. LED, open-shell LED, HFLD
   Martin Brehm           : Molecular dynamics
   Dmytro Bykov           : SCF Hessian
   Vijay G. Chilkuri      : MRCI spin determinant printing, contributions to CSF-ICE
   Dipayan Datta          : RHF DLPNO-CCSD density
   Achintya Kumar Dutta   : EOM-CC, STEOM-CC
   Dmitry Ganyushin       : Spin-Orbit,Spin-Spin,Magnetic field MRCI
   Miquel Garcia          : C-PCM Hessian, Gaussian charge scheme
   Yang Guo               : DLPNO-NEVPT2, CIM, IAO-localization
   Andreas Hansen         : Spin unrestricted coupled pair/coupled cluster methods
   Benjamin Helmich-Paris : CASSCF linear response (MC-RPA)
   Lee Huntington         : MR-EOM, pCC
   Robert Izsak           : Overlap fitted RIJCOSX, COSX-SCS-MP3, EOM
   Christian Kollmar      : KDIIS, OOCD, Brueckner-CCSD(T), CCSD density
   Simone Kossmann        : Meta GGA functionals, TD-DFT gradient, OOMP2, MP2 Hessian
   Martin Krupicka        : AUTO-CI
   Lucas Lang             : DCDCAS
   Dagmar Lenk            : GEPOL surface, SMD
   Dimitrios Liakos       : Extrapolation schemes; Compound Job, initial MDCI parallelization
   Dimitrios Manganas     : Further ROCIS development; embedding schemes
   Dimitrios Pantazis     : SARC Basis sets
   Taras Petrenko         : DFT Hessian,TD-DFT gradient, ASA, ECA, R-Raman, ABS, FL, XAS/XES, NRVS
   Peter Pinski           : DLPNO-MP2, DLPNO-MP2 Gradient
   Christoph Reimann      : Effective Core Potentials
   Marius Retegan         : Local ZFS, SOC
   Christoph Riplinger    : Optimizer, TS searches, QM/MM, DLPNO-CCSD(T), (RO)-DLPNO pert. Triples
   Tobias Risthaus        : Range-separated hybrids, TD-DFT gradient, RPA, STAB
   Michael Roemelt        : Original ROCIS implementation
   Masaaki Saitow         : Open-shell DLPNO-CCSD energy and density
   Barbara Sandhoefer     : DKH picture change effects
   Avijit Sen             : IP-ROCIS
   Kantharuban Sivalingam : CASSCF convergence, NEVPT2, FIC-MRCI
   Bernardo de Souza      : ESD, SOC TD-DFT
   Georgi Stoychev        : AutoAux, RI-MP2 NMR
   Willem Van den Heuvel  : Paramagnetic NMR
   Boris Wezisla          : Elementary symmetry handling
   Frank Wennmohs         : Technical directorship


 We gratefully acknowledge several colleagues who have allowed us to
 interface, adapt or use parts of their codes:
   Stefan Grimme, W. Hujo, H. Kruse,             : VdW corrections, initial TS optimization,
                  C. Bannwarth                     DFT functionals, gCP, sTDA/sTD-DF
   Ed Valeev, F. Pavosevic, A. Kumar             : LibInt (2-el integral package), F12 methods
   Garnet Chan, S. Sharma, J. Yang, R. Olivares  : DMRG
   Ulf Ekstrom                                   : XCFun DFT Library
   Mihaly Kallay                                 : mrcc  (arbitrary order and MRCC methods)
   Andreas Klamt, Michael Diedenhofen            : otool_cosmo (COSMO solvation model)
   Jiri Pittner, Ondrej Demel                    : Mk-CCSD
   Frank Weinhold                                : gennbo (NPA and NBO analysis)
   Christopher J. Cramer and Donald G. Truhlar   : smd solvation model
   Lars Goerigk                                  : TD-DFT with DH, B97 family of functionals
   V. Asgeirsson, H. Jonsson                     : NEB implementation
   FAccTs GmbH                                   : IRC, NEB, NEB-TS, Multilevel, MM, QM/MM, CI optimization
   S Lehtola, MJT Oliveira, MAL Marques          : LibXC Library


 Your calculation uses the libint2 library for the computation of 2-el integrals
 For citations please refer to: http://libint.valeyev.net

 Your ORCA version has been built with support for libXC version: 4.2.3
 For citations please refer to: https://tddft.org/programs/libxc/

 This ORCA versions uses:
   CBLAS   interface :  Fast vector & matrix operations
   LAPACKE interface :  Fast linear algebra routines
   SCALAPACK package :  Parallel linear algebra routines


----- Orbital basis set information -----
Your calculation utilizes the basis: def2-TZVP
   F. Weigend and R. Ahlrichs, Phys. Chem. Chem. Phys. 7, 3297 (2005).

================================================================================
                                        WARNINGS
                       Please study these warnings very carefully!
================================================================================


WARNING: MDCI localization with Augmented Hessian Foster-Boys
  ===> : Switching off randomization!

WARNING: Post HF methods need fully converged wavefunctions
  ===> : Setting SCFConvForced true
         You can overwrite this default with %scf ConvForced false 


INFO   : the flag for use of LIBINT has been found!

================================================================================
                                       INPUT FILE
================================================================================
NAME = manual_reactants_336_sp.inp
|  1> ! SP CCSD(T) def2-TZVP CPCM(Acetone)
|  2> %cpcm
|  3> surfacetype vdw_gaussian
|  4> end
|  5> %geom MaxIter 100 end
|  6> %output 
|  7> xyzfile=True 
|  8> end 
|  9> %scf 
| 10> maxiter 250 
| 11> end
| 12> %output
| 13> Print[P_Hirshfeld] = 1
| 14> end
| 15> % maxcore
| 16> 4000
| 17> %pal nprocs 4
| 18> end
| 19> *xyz -1 1
| 20>   C   -2.75363457998359      0.29891389448776      0.68756920871954
| 21>   C   -1.75432579734293      0.19337747110284     -0.45601846113805
| 22>   C   -0.37546746179491      0.61887096363067     -0.00622999821366
| 23>   Br  0.95369677298775      0.30792368156749     -1.41782210437070
| 24>   H   -3.73364089105380     -0.09825978258097      0.38067143964849
| 25>   H   -2.38395290098653     -0.26869413594546      1.55658189769508
| 26>   H   -2.89654113191209      1.34448427381389      1.00494577798537
| 27>   H   -1.70553778076171     -0.85062150148346     -0.80707925103905
| 28>   H   -2.07576318783343      0.79985291843412     -1.31900330162960
| 29>   H   -0.03910414355461      0.04147099049151      0.87146246613800
| 30>   H   -0.31515433857997      1.69370016071346      0.21433951668242
| 31>   Cl  -0.16115455918415     -1.16584893423184      3.00515280952215
| 32> *
| 33> 
| 34>                          ****END OF INPUT****
================================================================================

                       ****************************
                       * Single Point Calculation *
                       ****************************

---------------------------------
CARTESIAN COORDINATES (ANGSTROEM)
---------------------------------
  C     -2.753635    0.298914    0.687569
  C     -1.754326    0.193377   -0.456018
  C     -0.375467    0.618871   -0.006230
  Br     0.953697    0.307924   -1.417822
  H     -3.733641   -0.098260    0.380671
  H     -2.383953   -0.268694    1.556582
  H     -2.896541    1.344484    1.004946
  H     -1.705538   -0.850622   -0.807079
  H     -2.075763    0.799853   -1.319003
  H     -0.039104    0.041471    0.871462
  H     -0.315154    1.693700    0.214340
  Cl    -0.161155   -1.165849    3.005153

----------------------------
CARTESIAN COORDINATES (A.U.)
----------------------------
  NO LB      ZA    FRAG     MASS         X           Y           Z
   0 C     6.0000    0    12.011   -5.203615    0.564865    1.299318
   1 C     6.0000    0    12.011   -3.315195    0.365430   -0.861750
   2 C     6.0000    0    12.011   -0.709531    1.169497   -0.011773
   3 Br   35.0000    0    79.900    1.802226    0.581891   -2.679295
   4 H     1.0000    0     1.008   -7.055559   -0.185684    0.719365
   5 H     1.0000    0     1.008   -4.505018   -0.507758    2.941513
   6 H     1.0000    0     1.008   -5.473669    2.540707    1.899072
   7 H     1.0000    0     1.008   -3.222999   -1.607442   -1.525159
   8 H     1.0000    0     1.008   -3.922624    1.511503   -2.492555
   9 H     1.0000    0     1.008   -0.073896    0.078369    1.646825
  10 H     1.0000    0     1.008   -0.595555    3.200629    0.405043
  11 Cl   17.0000    0    35.453   -0.304538   -2.203135    5.678916

--------------------------------
INTERNAL COORDINATES (ANGSTROEM)
--------------------------------
 C      0   0   0     0.000000000000     0.00000000     0.00000000
 C      1   0   0     1.522349742462     0.00000000     0.00000000
 C      2   1   0     1.511490880910   110.84049826     0.00000000
 Br     3   2   1     1.963659351673   111.03826159   174.05640834
 H      1   2   3     1.101065638441   110.47912968   185.15516378
 H      1   2   3     1.101828695215   109.66480027   305.85439899
 H      1   2   3     1.101983478745   111.54616488    65.16100279
 H      2   1   3     1.102523380037   109.50481031   119.94468200
 H      2   1   3     1.102668263413   111.00384523   237.28716360
 H      3   2   1     1.103120606651   111.56668289    55.52162020
 H      3   2   1     1.098884155239   112.65266067   291.74888149
 Cl    10   3   2     2.454618541859   159.05224676   323.83880838

---------------------------
INTERNAL COORDINATES (A.U.)
---------------------------
 C      0   0   0     0.000000000000     0.00000000     0.00000000
 C      1   0   0     2.876824093299     0.00000000     0.00000000
 C      2   1   0     2.856303818839   110.84049826     0.00000000
 Br     3   2   1     3.710778394975   111.03826159   174.05640834
 H      1   2   3     2.080712512124   110.47912968   185.15516378
 H      1   2   3     2.082154480452   109.66480027   305.85439899
 H      1   2   3     2.082446978934   111.54616488    65.16100279
 H      2   1   3     2.083467244516   109.50481031   119.94468200
 H      2   1   3     2.083741034418   111.00384523   237.28716360
 H      3   2   1     2.084595839256   111.56668289    55.52162020
 H      3   2   1     2.076590106307   112.65266067   291.74888149
 Cl    10   3   2     4.638556807359   159.05224676   323.83880838

---------------------
BASIS SET INFORMATION
---------------------
There are 4 groups of distinct atoms

 Group   1 Type C   : 11s6p2d1f contracted to 5s3p2d1f pattern {62111/411/11/1}
 Group   2 Type Br  : 17s13p8d1f contracted to 6s5p4d1f pattern {842111/64111/5111/1}
 Group   3 Type H   : 5s1p contracted to 3s1p pattern {311/1}
 Group   4 Type Cl  : 14s9p3d1f contracted to 5s5p2d1f pattern {73211/51111/21/1}

Atom   0C    basis set group =>   1
Atom   1C    basis set group =>   1
Atom   2C    basis set group =>   1
Atom   3Br   basis set group =>   2
Atom   4H    basis set group =>   3
Atom   5H    basis set group =>   3
Atom   6H    basis set group =>   3
Atom   7H    basis set group =>   3
Atom   8H    basis set group =>   3
Atom   9H    basis set group =>   3
Atom  10H    basis set group =>   3
Atom  11Cl   basis set group =>   4
[1632393728.079650] [comp0814:114010:0]            sys.c:618  UCX  ERROR shmget(size=2097152 flags=0xfb0) for mm_recv_desc failed: Operation not permitted, please check shared memory limits by 'ipcs -l'
[1632393728.083945] [comp0814:114012:0]            sys.c:618  UCX  ERROR shmget(size=2097152 flags=0xfb0) for mm_recv_desc failed: Operation not permitted, please check shared memory limits by 'ipcs -l'
[1632393728.085668] [comp0814:114014:0]            sys.c:618  UCX  ERROR shmget(size=2097152 flags=0xfb0) for mm_recv_desc failed: Operation not permitted, please check shared memory limits by 'ipcs -l'
[1632393728.096538] [comp0814:114015:0]            sys.c:618  UCX  ERROR shmget(size=2097152 flags=0xfb0) for mm_recv_desc failed: Operation not permitted, please check shared memory limits by 'ipcs -l'
[1632393728.111508] [comp0814:114014:0]            sys.c:618  UCX  ERROR shmget(size=2097152 flags=0xb80) for ucp_am_bufs failed: Operation not permitted, please check shared memory limits by 'ipcs -l'
[1632393728.111625] [comp0814:114010:0]            sys.c:618  UCX  ERROR shmget(size=2097152 flags=0xb80) for ucp_am_bufs failed: Operation not permitted, please check shared memory limits by 'ipcs -l'
[1632393728.112524] [comp0814:114012:0]            sys.c:618  UCX  ERROR shmget(size=2097152 flags=0xb80) for ucp_am_bufs failed: Operation not permitted, please check shared memory limits by 'ipcs -l'


           ************************************************************
           *        Program running with 4 parallel MPI-processes     *
           *              working on a common directory               *
           ************************************************************
------------------------------------------------------------------------------
                           ORCA GTO INTEGRAL CALCULATION
------------------------------------------------------------------------------

                         BASIS SET STATISTICS AND STARTUP INFO

 # of primitive gaussian shells          ...  168
 # of primitive gaussian functions       ...  360
 # of contracted shells                  ...   90
 # of contracted basis functions         ...  220
 Highest angular momentum                ...    3
 Maximum contraction depth               ...    8
 Integral package used                   ... LIBINT
 Integral threshhold            Thresh   ...  1.000e-10
 Primitive cut-off              TCut     ...  1.000e-11


------------------------------ INTEGRAL EVALUATION ----------------------------


 * One electron integrals 
 Pre-screening matrix                    ... done
 Shell pair data                         ... done (   0.001 sec)

[1632393728.394403] [comp0814:114015:0]            sys.c:618  UCX  ERROR shmget(size=2097152 flags=0xb80) for ucp_am_bufs failed: Operation not permitted, please check shared memory limits by 'ipcs -l'
[1632393729.264064] [comp0814:114075:0]            sys.c:618  UCX  ERROR shmget(size=2097152 flags=0xfb0) for mm_recv_desc failed: Operation not permitted, please check shared memory limits by 'ipcs -l'
[1632393729.268470] [comp0814:114073:0]            sys.c:618  UCX  ERROR shmget(size=2097152 flags=0xfb0) for mm_recv_desc failed: Operation not permitted, please check shared memory limits by 'ipcs -l'
[1632393729.271585] [comp0814:114070:0]            sys.c:618  UCX  ERROR shmget(size=2097152 flags=0xfb0) for mm_recv_desc failed: Operation not permitted, please check shared memory limits by 'ipcs -l'
[1632393729.283975] [comp0814:114077:0]            sys.c:618  UCX  ERROR shmget(size=2097152 flags=0xfb0) for mm_recv_desc failed: Operation not permitted, please check shared memory limits by 'ipcs -l'
[1632393729.296851] [comp0814:114070:0]            sys.c:618  UCX  ERROR shmget(size=2097152 flags=0xb80) for ucp_am_bufs failed: Operation not permitted, please check shared memory limits by 'ipcs -l'
[1632393729.297382] [comp0814:114075:0]            sys.c:618  UCX  ERROR shmget(size=2097152 flags=0xb80) for ucp_am_bufs failed: Operation not permitted, please check shared memory limits by 'ipcs -l'


           ************************************************************
           *        Program running with 4 parallel MPI-processes     *
           *              working on a common directory               *
           ************************************************************
[1632393729.299900] [comp0814:114073:0]            sys.c:618  UCX  ERROR shmget(size=2097152 flags=0xb80) for ucp_am_bufs failed: Operation not permitted, please check shared memory limits by 'ipcs -l'
[1632393729.301058] [comp0814:114077:0]            sys.c:618  UCX  ERROR shmget(size=2097152 flags=0xb80) for ucp_am_bufs failed: Operation not permitted, please check shared memory limits by 'ipcs -l'
-------------------------------------------------------------------------------
                                 ORCA SCF
-------------------------------------------------------------------------------

------------
SCF SETTINGS
------------
Hamiltonian:
 Ab initio Hamiltonian  Method          .... Hartree-Fock(GTOs)


General Settings:
 Integral files         IntName         .... manual_reactants_336_sp
 Hartree-Fock type      HFTyp           .... RHF
 Total Charge           Charge          ....   -1
 Multiplicity           Mult            ....    1
 Number of Electrons    NEL             ....   78
 Basis Dimension        Dim             ....  220
 Nuclear Repulsion      ENuc            ....    362.1147994213 Eh

Convergence Acceleration:
 DIIS                   CNVDIIS         .... on
   Start iteration      DIISMaxIt       ....    12
   Startup error        DIISStart       ....  0.200000
   # of expansion vecs  DIISMaxEq       ....     5
   Bias factor          DIISBfac        ....   1.050
   Max. coefficient     DIISMaxC        ....  10.000
 Newton-Raphson         CNVNR           .... off
 SOSCF                  CNVSOSCF        .... on
   Start iteration      SOSCFMaxIt      ....   150
   Startup grad/error   SOSCFStart      ....  0.003300
 Level Shifting         CNVShift        .... on
   Level shift para.    LevelShift      ....    0.2500
   Turn off err/grad.   ShiftErr        ....    0.0010
 Zerner damping         CNVZerner       .... off
 Static damping         CNVDamp         .... on
   Fraction old density DampFac         ....    0.7000
   Max. Damping (<1)    DampMax         ....    0.9800
   Min. Damping (>=0)   DampMin         ....    0.0000
   Turn off err/grad.   DampErr         ....    0.1000
 Fernandez-Rico         CNVRico         .... off

SCF Procedure:
 Maximum # iterations   MaxIter         ....   250
 SCF integral mode      SCFMode         .... Direct
   Integral package                     .... LIBINT
 Reset frequency        DirectResetFreq ....    20
 Integral Threshold     Thresh          ....  1.000e-10 Eh
 Primitive CutOff       TCut            ....  1.000e-11 Eh

Convergence Tolerance:
 Convergence Check Mode ConvCheckMode   .... Total+1el-Energy
 Convergence forced     ConvForced      .... 1
 Energy Change          TolE            ....  1.000e-06 Eh
 1-El. energy change                    ....  1.000e-03 Eh
 Orbital Gradient       TolG            ....  5.000e-05
 Orbital Rotation angle TolX            ....  5.000e-05
 DIIS Error             TolErr          ....  1.000e-06


Diagonalization of the overlap matrix:
Smallest eigenvalue                        ... 3.341e-04
Time for diagonalization                   ...    0.006 sec
Threshold for overlap eigenvalues          ... 1.000e-08
Number of eigenvalues below threshold      ... 0
Time for construction of square roots      ...    0.004 sec
Total time needed                          ...    0.010 sec

-------------------
DFT GRID GENERATION
-------------------

General Integration Accuracy     IntAcc      ...  4.340
Radial Grid Type                 RadialGrid  ... Gauss-Chebyshev
Angular Grid (max. acc.)         AngularGrid ... Lebedev-110
Angular grid pruning method      GridPruning ... 3 (G Style)
Weight generation scheme         WeightScheme... Becke
Basis function cutoff            BFCut       ...    1.0000e-10
Integration weight cutoff        WCut        ...    1.0000e-14
Grids for H and He will be reduced by one unit

# of grid points (after initial pruning)     ...  15260 (   0.0 sec)
# of grid points (after weights+screening)   ...  14493 (   0.0 sec)
nearest neighbour list constructed           ...    0.0 sec
Grid point re-assignment to atoms done       ...    0.0 sec
Grid point division into batches done        ...    0.0 sec
Reduced shell lists constructed in    0.0 sec

Total number of grid points                  ...    14493
Total number of batches                      ...      232
Average number of points per batch           ...       62
Average number of grid points per atom       ...     1208
Average number of shells per batch           ...    63.90 (71.00%)
Average number of basis functions per batch  ...   159.86 (72.67%)
Average number of large shells per batch     ...    52.86 (82.73%)
Average number of large basis fcns per batch ...   131.41 (82.20%)
Maximum spatial batch extension              ...  18.89, 20.19, 18.24 au
Average spatial batch extension              ...   0.69,  0.71,  0.74 au

Time for grid setup =    0.047 sec

------------------------------
INITIAL GUESS: MODEL POTENTIAL
------------------------------
Loading Hartree-Fock densities                     ... done
Calculating cut-offs                               ... done
Setting up the integral package                    ... done
Initializing the effective Hamiltonian             ... done
Starting the Coulomb interaction                   ... done (   0.0 sec)
Reading the grid                                   ... done
Mapping shells                                     ... done
Starting the XC term evaluation                    ... done (   0.0 sec)
Transforming the Hamiltonian                       ... done (   0.0 sec)
Diagonalizing the Hamiltonian                      ... done (   0.0 sec)
Back transforming the eigenvectors                 ... done (   0.0 sec)
Now organizing SCF variables                       ... done
                      ------------------
                      INITIAL GUESS DONE (   0.2 sec)
                      ------------------

--------------------
CPCM SOLVATION MODEL
--------------------
CPCM parameters:
  Epsilon                                         ...      20.7000
  Refrac                                          ...       1.3590
  Rsolv                                           ...       1.3000
  Surface type                                    ... GAUSSIAN VDW
  Epsilon function type                           ...         CPCM
Radii:
 Radius for C  used is    3.8550 Bohr (=   2.0400 Ang.)
 Radius for Br used is    4.1952 Bohr (=   2.2200 Ang.)
 Radius for H  used is    2.4944 Bohr (=   1.3200 Ang.)
 Radius for Cl used is    3.9684 Bohr (=   2.1000 Ang.)
Calculating surface                               ...        done! (  0.0s)
GEPOL surface points                              ...          742
GEPOL Volume                                      ...     989.3368
GEPOL Surface-area                                ...     603.2459
Calculating surface distance matrix               ...        done! (  0.0s)
Performing Cholesky decomposition & store         ...        done! (  0.0s)
Overall time for CPCM initialization              ...                 0.0s
--------------
SCF ITERATIONS
--------------
ITER       Energy         Delta-E        Max-DP      RMS-DP      [F,P]     Damp
               ***  Starting incremental Fock matrix formation  ***
  0  -3149.5178746090   0.000000000000 0.08192170  0.00109459  0.2243133 0.7000
  1  -3149.6199739456  -0.102099336582 0.06074589  0.00091118  0.1639654 0.7000
                               ***Turning on DIIS***
  2  -3149.6826184211  -0.062644475472 0.03821334  0.00063865  0.1213300 0.7000
  3  -3150.2674311334  -0.584812712259 0.09247102  0.00146425  0.0897488 0.0000
  4  -3149.7856388027   0.481792330673 0.00975371  0.00023835  0.0078923 0.0000
                      *** Initiating the SOSCF procedure ***
                           *** Shutting down DIIS ***
                      *** Re-Reading the Fockian *** 
                      *** Removing any level shift *** 
ITER      Energy       Delta-E        Grad      Rot      Max-DP    RMS-DP
  5  -3149.80715223  -0.0215134323  0.001984  0.001984  0.005157  0.000127
               *** Restarting incremental Fock matrix formation ***
  6  -3149.81353293  -0.0063806908  0.000875  0.001387  0.002937  0.000073
  7  -3149.81356748  -0.0000345531  0.000478  0.001408  0.002193  0.000054
  8  -3149.81357651  -0.0000090335  0.000101  0.000151  0.000271  0.000006
  9  -3149.81357683  -0.0000003217  0.000039  0.000075  0.000178  0.000004
                 **** Energy Check signals convergence ****
              ***Rediagonalizing the Fockian in SOSCF/NRSCF***

               *****************************************************
               *                     SUCCESS                       *
               *           SCF CONVERGED AFTER  10 CYCLES          *
               *****************************************************


----------------
TOTAL SCF ENERGY
----------------

Total Energy       :        -3149.81357689 Eh          -85710.78488 eV

Components:
Nuclear Repulsion  :          362.11479942 Eh            9853.64464 eV
Electronic Energy  :        -3511.92837631 Eh          -95564.42952 eV
One Electron Energy:        -5111.78078103 Eh         -139098.62669 eV
Two Electron Energy:         1599.85240471 Eh           43534.19717 eV
CPCM Dielectric    :           -0.10230174 Eh              -2.78377 eV

Virial components:
Potential Energy   :        -6299.40823994 Eh         -171415.61281 eV
Kinetic Energy     :         3149.59466305 Eh           85704.82793 eV
Virial Ratio       :            2.00006951

CPCM Solvation Model Properties:
Surface-charge          :            0.96850152
Charge-correction       :           -0.00442923 Eh              -0.12053 eV
Free-energy (cav+disp)  :            0.00392600 Eh               0.10683 eV
Corrected G(solv)       :        -3149.81408012 Eh          -85710.79857 eV

---------------
SCF CONVERGENCE
---------------

  Last Energy change         ...   -5.8545e-08  Tolerance :   1.0000e-06
  Last MAX-Density change    ...    5.3809e-05  Tolerance :   1.0000e-05
  Last RMS-Density change    ...    1.0871e-06  Tolerance :   1.0000e-06
  Last Orbital Gradient      ...    1.0635e-05  Tolerance :   5.0000e-05
  Last Orbital Rotation      ...    3.4330e-05  Tolerance :   5.0000e-05

             **** THE GBW FILE WAS UPDATED (manual_reactants_336_sp.gbw) ****
             **** DENSITY FILE WAS UPDATED (manual_reactants_336_sp.scfp) ****
             **** ENERGY FILE WAS UPDATED (manual_reactants_336_sp.en.tmp) ****
             **** THE GBW FILE WAS UPDATED (manual_reactants_336_sp.gbw) ****
             **** DENSITY FILE WAS UPDATED (manual_reactants_336_sp.scfp) ****
----------------
ORBITAL ENERGIES
----------------

  NO   OCC          E(Eh)            E(eV) 
   0   2.0000    -489.998100    -13333.5262 
   1   2.0000    -104.704709     -2849.1600 
   2   2.0000     -65.140711     -1772.5689 
   3   2.0000     -58.495800     -1591.7517 
   4   2.0000     -58.494655     -1591.7205 
   5   2.0000     -58.494647     -1591.7203 
   6   2.0000     -11.267752      -306.6111 
   7   2.0000     -11.219463      -305.2971 
   8   2.0000     -11.203913      -304.8740 
   9   2.0000     -10.432443      -283.8812 
  10   2.0000      -9.814180      -267.0574 
  11   2.0000      -7.898962      -214.9417 
  12   2.0000      -7.898941      -214.9411 
  13   2.0000      -7.898941      -214.9411 
  14   2.0000      -7.425601      -202.0609 
  15   2.0000      -7.420053      -201.9099 
  16   2.0000      -7.420002      -201.9085 
  17   2.0000      -3.167911       -86.2033 
  18   2.0000      -3.165061       -86.1257 
  19   2.0000      -3.165027       -86.1248 
  20   2.0000      -3.157966       -85.9326 
  21   2.0000      -3.157959       -85.9324 
  22   2.0000      -1.081359       -29.4253 
  23   2.0000      -0.996950       -27.1284 
  24   2.0000      -0.947356       -25.7789 
  25   2.0000      -0.880640       -23.9634 
  26   2.0000      -0.791776       -21.5453 
  27   2.0000      -0.637966       -17.3599 
  28   2.0000      -0.579290       -15.7633 
  29   2.0000      -0.548562       -14.9271 
  30   2.0000      -0.545187       -14.8353 
  31   2.0000      -0.488151       -13.2833 
  32   2.0000      -0.470031       -12.7902 
  33   2.0000      -0.454481       -12.3671 
  34   2.0000      -0.396279       -10.7833 
  35   2.0000      -0.393873       -10.7178 
  36   2.0000      -0.365091        -9.9346 
  37   2.0000      -0.363781        -9.8990 
  38   2.0000      -0.357585        -9.7304 
  39   0.0000       0.144480         3.9315 
  40   0.0000       0.177070         4.8183 
  41   0.0000       0.195420         5.3176 
  42   0.0000       0.198839         5.4107 
  43   0.0000       0.224948         6.1211 
  44   0.0000       0.243783         6.6337 
  45   0.0000       0.264322         7.1926 
  46   0.0000       0.279057         7.5935 
  47   0.0000       0.296434         8.0664 
  48   0.0000       0.300623         8.1804 
  49   0.0000       0.323980         8.8159 
  50   0.0000       0.341738         9.2992 
  51   0.0000       0.355612         9.6767 
  52   0.0000       0.378094        10.2885 
  53   0.0000       0.385141        10.4802 
  54   0.0000       0.398741        10.8503 
  55   0.0000       0.414949        11.2913 
  56   0.0000       0.424389        11.5482 
  57   0.0000       0.443384        12.0651 
  58   0.0000       0.463756        12.6194 
  59   0.0000       0.499496        13.5920 
  60   0.0000       0.506543        13.7837 
  61   0.0000       0.513616        13.9762 
  62   0.0000       0.555447        15.1145 
  63   0.0000       0.568916        15.4810 
  64   0.0000       0.580905        15.8072 
  65   0.0000       0.583873        15.8880 
  66   0.0000       0.596612        16.2346 
  67   0.0000       0.615712        16.7544 
  68   0.0000       0.622020        16.9260 
  69   0.0000       0.648467        17.6457 
  70   0.0000       0.653243        17.7756 
  71   0.0000       0.660856        17.9828 
  72   0.0000       0.674031        18.3413 
  73   0.0000       0.688014        18.7218 
  74   0.0000       0.706387        19.2218 
  75   0.0000       0.723705        19.6930 
  76   0.0000       0.729009        19.8374 
  77   0.0000       0.747767        20.3478 
  78   0.0000       0.752226        20.4691 
  79   0.0000       0.756584        20.5877 
  80   0.0000       0.793406        21.5897 
  81   0.0000       0.813354        22.1325 
  82   0.0000       0.833070        22.6690 
  83   0.0000       0.864538        23.5253 
  84   0.0000       0.939036        25.5525 
  85   0.0000       0.986630        26.8476 
  86   0.0000       1.011067        27.5125 
  87   0.0000       1.037568        28.2337 
  88   0.0000       1.069418        29.1003 
  89   0.0000       1.123423        30.5699 
  90   0.0000       1.133217        30.8364 
  91   0.0000       1.182234        32.1702 
  92   0.0000       1.206208        32.8226 
  93   0.0000       1.226506        33.3749 
  94   0.0000       1.252187        34.0737 
  95   0.0000       1.309256        35.6267 
  96   0.0000       1.312882        35.7253 
  97   0.0000       1.325458        36.0676 
  98   0.0000       1.347420        36.6652 
  99   0.0000       1.398036        38.0425 
 100   0.0000       1.451657        39.5016 
 101   0.0000       1.609427        43.7947 
 102   0.0000       1.651882        44.9500 
 103   0.0000       1.661022        45.1987 
 104   0.0000       1.664382        45.2901 
 105   0.0000       1.677502        45.6471 
 106   0.0000       1.754965        47.7550 
 107   0.0000       1.785314        48.5809 
 108   0.0000       1.794979        48.8439 
 109   0.0000       1.805978        49.1431 
 110   0.0000       1.824734        49.6535 
 111   0.0000       1.828093        49.7449 
 112   0.0000       1.836594        49.9763 
 113   0.0000       1.850312        50.3496 
 114   0.0000       1.861354        50.6500 
 115   0.0000       1.868443        50.8429 
 116   0.0000       1.897118        51.6232 
 117   0.0000       1.910077        51.9758 
 118   0.0000       1.924445        52.3668 
 119   0.0000       1.927913        52.4612 
 120   0.0000       1.949442        53.0470 
 121   0.0000       1.962321        53.3975 
 122   0.0000       1.969725        53.5989 
 123   0.0000       2.029600        55.2282 
 124   0.0000       2.067582        56.2618 
 125   0.0000       2.117727        57.6263 
 126   0.0000       2.136151        58.1276 
 127   0.0000       2.147178        58.4277 
 128   0.0000       2.179776        59.3147 
 129   0.0000       2.193240        59.6811 
 130   0.0000       2.200924        59.8902 
 131   0.0000       2.205294        60.0091 
 132   0.0000       2.221862        60.4599 
 133   0.0000       2.234933        60.8156 
 134   0.0000       2.278095        61.9901 
 135   0.0000       2.293122        62.3990 
 136   0.0000       2.349934        63.9449 
 137   0.0000       2.371680        64.5367 
 138   0.0000       2.412386        65.6444 
 139   0.0000       2.452004        66.7224 
 140   0.0000       2.510723        68.3202 
 141   0.0000       2.512624        68.3720 
 142   0.0000       2.513378        68.3925 
 143   0.0000       2.514286        68.4172 
 144   0.0000       2.516907        68.4885 
 145   0.0000       2.520073        68.5747 
 146   0.0000       2.547177        69.3122 
 147   0.0000       2.608595        70.9835 
 148   0.0000       2.619823        71.2890 
 149   0.0000       2.637442        71.7685 
 150   0.0000       2.642756        71.9130 
 151   0.0000       2.661707        72.4287 
 152   0.0000       2.682503        72.9946 
 153   0.0000       2.684786        73.0568 
 154   0.0000       2.691231        73.2321 
 155   0.0000       2.711945        73.7958 
 156   0.0000       2.751045        74.8597 
 157   0.0000       2.792580        75.9900 
 158   0.0000       2.823167        76.8223 
 159   0.0000       2.849330        77.5342 
 160   0.0000       2.885032        78.5057 
 161   0.0000       2.903506        79.0084 
 162   0.0000       2.923588        79.5549 
 163   0.0000       2.959462        80.5311 
 164   0.0000       2.973033        80.9003 
 165   0.0000       2.980516        81.1040 
 166   0.0000       3.028569        82.4116 
 167   0.0000       3.062302        83.3295 
 168   0.0000       3.075918        83.7000 
 169   0.0000       3.190861        86.8277 
 170   0.0000       3.267370        88.9097 
 171   0.0000       3.306593        89.9770 
 172   0.0000       3.371372        91.7397 
 173   0.0000       3.427909        93.2781 
 174   0.0000       3.450058        93.8808 
 175   0.0000       3.484258        94.8115 
 176   0.0000       3.531219        96.0893 
 177   0.0000       3.555570        96.7520 
 178   0.0000       3.569736        97.1374 
 179   0.0000       3.589508        97.6755 
 180   0.0000       3.608360        98.1885 
 181   0.0000       3.661611        99.6375 
 182   0.0000       3.677601       100.0726 
 183   0.0000       3.700605       100.6986 
 184   0.0000       3.732095       101.5555 
 185   0.0000       3.825077       104.0856 
 186   0.0000       3.855964       104.9261 
 187   0.0000       3.895106       105.9912 
 188   0.0000       3.934778       107.0708 
 189   0.0000       3.993157       108.6593 
 190   0.0000       4.070227       110.7565 
 191   0.0000       4.138070       112.6026 
 192   0.0000       4.144237       112.7704 
 193   0.0000       4.216533       114.7377 
 194   0.0000       4.304079       117.1199 
 195   0.0000       4.374771       119.0436 
 196   0.0000       4.406965       119.9196 
 197   0.0000       4.462956       121.4432 
 198   0.0000       4.485635       122.0603 
 199   0.0000       4.522071       123.0518 
 200   0.0000       4.604982       125.3079 
 201   0.0000       4.636740       126.1721 
 202   0.0000       4.691915       127.6735 
 203   0.0000       4.743122       129.0669 
 204   0.0000       4.755709       129.4094 
 205   0.0000       4.832354       131.4950 
 206   0.0000       4.922707       133.9537 
 207   0.0000       4.954081       134.8074 
 208   0.0000       4.971564       135.2831 
 209   0.0000       5.005501       136.2066 
 210   0.0000       5.163819       140.5147 
 211   0.0000       5.281283       143.7110 
 212   0.0000       8.214394       223.5250 
 213   0.0000      11.579414       315.0919 
 214   0.0000      11.603479       315.7467 
 215   0.0000      11.622301       316.2589 
 216   0.0000      23.307667       634.2339 
 217   0.0000      23.434528       637.6859 
 218   0.0000      23.537002       640.4744 
 219   0.0000      25.162535       684.7074 

                    ********************************
                    * MULLIKEN POPULATION ANALYSIS *
                    ********************************

-----------------------
MULLIKEN ATOMIC CHARGES
-----------------------
   0 C :   -0.363411
   1 C :   -0.130946
   2 C :   -0.090108
   3 Br:   -0.279593
   4 H :    0.117643
   5 H :    0.116668
   6 H :    0.104592
   7 H :    0.094407
   8 H :    0.095548
   9 H :    0.143380
  10 H :    0.138448
  11 Cl:   -0.946628
Sum of atomic charges:   -1.0000000

--------------------------------
MULLIKEN REDUCED ORBITAL CHARGES
--------------------------------
  0 C s       :     3.227897  s :     3.227897
      pz      :     0.994298  p :     3.052999
      px      :     1.005067
      py      :     1.053634
      dz2     :     0.016197  d :     0.077811
      dxz     :     0.016275
      dyz     :     0.019097
      dx2y2   :     0.017410
      dxy     :     0.008832
      f0      :     0.000455  f :     0.004704
      f+1     :     0.001053
      f-1     :     0.000488
      f+2     :     0.001035
      f-2     :     0.000794
      f+3     :     0.000183
      f-3     :     0.000697
  1 C s       :     3.131006  s :     3.131006
      pz      :     0.971106  p :     2.875896
      px      :     0.896038
      py      :     1.008752
      dz2     :     0.022394  d :     0.117151
      dxz     :     0.025817
      dyz     :     0.024605
      dx2y2   :     0.028973
      dxy     :     0.015362
      f0      :     0.000751  f :     0.006892
      f+1     :     0.001313
      f-1     :     0.000579
      f+2     :     0.001525
      f-2     :     0.000874
      f+3     :     0.000767
      f-3     :     0.001083
  2 C s       :     3.150405  s :     3.150405
      pz      :     0.890041  p :     2.812776
      px      :     0.865433
      py      :     1.057302
      dz2     :     0.020355  d :     0.120559
      dxz     :     0.035987
      dyz     :     0.018021
      dx2y2   :     0.028612
      dxy     :     0.017583
      f0      :     0.000493  f :     0.006368
      f+1     :     0.001359
      f-1     :     0.000625
      f+2     :     0.001250
      f-2     :     0.000855
      f+3     :     0.000771
      f-3     :     0.001014
  3 Brs       :     7.912075  s :     7.912075
      pz      :     5.647246  p :    17.314868
      px      :     5.694288
      py      :     5.973334
      dz2     :     2.008165  d :    10.046522
      dxz     :     2.021421
      dyz     :     2.005707
      dx2y2   :     2.006952
      dxy     :     2.004277
      f0      :     0.000736  f :     0.006128
      f+1     :     0.001884
      f-1     :     0.000293
      f+2     :     0.001581
      f-2     :     0.000939
      f+3     :     0.000420
      f-3     :     0.000275
  4 H s       :     0.860930  s :     0.860930
      pz      :     0.004203  p :     0.021426
      px      :     0.012278
      py      :     0.004946
  5 H s       :     0.860901  s :     0.860901
      pz      :     0.010996  p :     0.022431
      px      :     0.004984
      py      :     0.006451
  6 H s       :     0.874175  s :     0.874175
      pz      :     0.004583  p :     0.021233
      px      :     0.003750
      py      :     0.012900
  7 H s       :     0.883880  s :     0.883880
      pz      :     0.004926  p :     0.021713
      px      :     0.003335
      py      :     0.013452
  8 H s       :     0.882813  s :     0.882813
      pz      :     0.010761  p :     0.021640
      px      :     0.004320
      py      :     0.006559
  9 H s       :     0.830868  s :     0.830868
      pz      :     0.013926  p :     0.025752
      px      :     0.004338
      py      :     0.007488
 10 H s       :     0.839169  s :     0.839169
      pz      :     0.003898  p :     0.022382
      px      :     0.003396
      py      :     0.015089
 11 Cls       :     5.975366  s :     5.975366
      pz      :     3.990282  p :    11.970467
      px      :     3.984967
      py      :     3.995218
      dz2     :     0.000211  d :     0.000770
      dxz     :     0.000102
      dyz     :     0.000355
      dx2y2   :     0.000063
      dxy     :     0.000039
      f0      :     0.000003  f :     0.000026
      f+1     :     0.000000
      f-1     :     0.000013
      f+2     :     0.000005
      f-2     :     0.000002
      f+3     :     0.000000
      f-3     :     0.000002


                     *******************************
                     * LOEWDIN POPULATION ANALYSIS *
                     *******************************

----------------------
LOEWDIN ATOMIC CHARGES
----------------------
   0 C :   -0.298720
   1 C :   -0.318504
   2 C :   -0.425351
   3 Br:    0.128620
   4 H :    0.113811
   5 H :    0.106744
   6 H :    0.112324
   7 H :    0.129585
   8 H :    0.127058
   9 H :    0.108050
  10 H :    0.125234
  11 Cl:   -0.908851

-------------------------------
LOEWDIN REDUCED ORBITAL CHARGES
-------------------------------
  0 C s       :     2.832112  s :     2.832112
      pz      :     1.058893  p :     3.160361
      px      :     1.040026
      py      :     1.061441
      dz2     :     0.064072  d :     0.281034
      dxz     :     0.055426
      dyz     :     0.063822
      dx2y2   :     0.063133
      dxy     :     0.034580
      f0      :     0.004212  f :     0.025213
      f+1     :     0.004571
      f-1     :     0.003209
      f+2     :     0.003216
      f-2     :     0.004927
      f+3     :     0.001586
      f-3     :     0.003492
  1 C s       :     2.783005  s :     2.783005
      pz      :     1.028283  p :     3.064418
      px      :     1.020502
      py      :     1.015633
      dz2     :     0.078541  d :     0.430886
      dxz     :     0.102381
      dyz     :     0.081857
      dx2y2   :     0.105550
      dxy     :     0.062558
      f0      :     0.005967  f :     0.040195
      f+1     :     0.007040
      f-1     :     0.003702
      f+2     :     0.005430
      f-2     :     0.006205
      f+3     :     0.005138
      f-3     :     0.006713
  2 C s       :     2.872719  s :     2.872719
      pz      :     1.000709  p :     3.095251
      px      :     1.013380
      py      :     1.081162
      dz2     :     0.069821  d :     0.423105
      dxz     :     0.128195
      dyz     :     0.057047
      dx2y2   :     0.104940
      dxy     :     0.063101
      f0      :     0.003428  f :     0.034277
      f+1     :     0.007372
      f-1     :     0.003095
      f+2     :     0.004580
      f-2     :     0.005429
      f+3     :     0.004497
      f-3     :     0.005877
  3 Brs       :     7.609812  s :     7.609812
      pz      :     5.601843  p :    17.135511
      px      :     5.625282
      py      :     5.908385
      dz2     :     2.026338  d :    10.113816
      dxz     :     2.040891
      dyz     :     2.016834
      dx2y2   :     2.017496
      dxy     :     2.012257
      f0      :     0.001684  f :     0.012241
      f+1     :     0.003617
      f-1     :     0.000663
      f+2     :     0.002685
      f-2     :     0.002161
      f+3     :     0.000826
      f-3     :     0.000606
  4 H s       :     0.827245  s :     0.827245
      pz      :     0.013786  p :     0.058944
      px      :     0.029978
      py      :     0.015181
  5 H s       :     0.831104  s :     0.831104
      pz      :     0.027799  p :     0.062152
      px      :     0.015393
      py      :     0.018960
  6 H s       :     0.828732  s :     0.828732
      pz      :     0.013724  p :     0.058944
      px      :     0.012033
      py      :     0.033187
  7 H s       :     0.813893  s :     0.813893
      pz      :     0.013488  p :     0.056522
      px      :     0.010817
      py      :     0.032216
  8 H s       :     0.816364  s :     0.816364
      pz      :     0.024973  p :     0.056578
      px      :     0.012793
      py      :     0.018812
  9 H s       :     0.821033  s :     0.821033
      pz      :     0.036558  p :     0.070917
      px      :     0.012182
      py      :     0.022177
 10 H s       :     0.813011  s :     0.813011
      pz      :     0.012270  p :     0.061755
      px      :     0.010543
      py      :     0.038941
 11 Cls       :     5.970638  s :     5.970638
      pz      :     3.966533  p :    11.935952
      px      :     3.982371
      py      :     3.987047
      dz2     :     0.000645  d :     0.002182
      dxz     :     0.000239
      dyz     :     0.001016
      dx2y2   :     0.000185
      dxy     :     0.000097
      f0      :     0.000010  f :     0.000079
      f+1     :     0.000001
      f-1     :     0.000043
      f+2     :     0.000015
      f-2     :     0.000004
      f+3     :     0.000001
      f-3     :     0.000004


                      *****************************
                      * MAYER POPULATION ANALYSIS *
                      *****************************

  NA   - Mulliken gross atomic population
  ZA   - Total nuclear charge
  QA   - Mulliken gross atomic charge
  VA   - Mayer's total valence
  BVA  - Mayer's bonded valence
  FA   - Mayer's free valence

  ATOM       NA         ZA         QA         VA         BVA        FA
  0 C      6.3634     6.0000    -0.3634     3.9050     3.9050    -0.0000
  1 C      6.1309     6.0000    -0.1309     3.8914     3.8914     0.0000
  2 C      6.0901     6.0000    -0.0901     3.8046     3.8046     0.0000
  3 Br    35.2796    35.0000    -0.2796     0.9463     0.9463     0.0000
  4 H      0.8824     1.0000     0.1176     0.9671     0.9671     0.0000
  5 H      0.8833     1.0000     0.1167     1.0095     1.0095    -0.0000
  6 H      0.8954     1.0000     0.1046     0.9720     0.9720    -0.0000
  7 H      0.9056     1.0000     0.0944     0.9787     0.9787     0.0000
  8 H      0.9045     1.0000     0.0955     0.9757     0.9757    -0.0000
  9 H      0.8566     1.0000     0.1434     1.0354     1.0354     0.0000
 10 H      0.8616     1.0000     0.1384     0.9711     0.9711     0.0000
 11 Cl    17.9466    17.0000    -0.9466     0.0882     0.0882    -0.0000

  Mayer bond orders larger than 0.100000
B(  0-C ,  1-C ) :   0.9676 B(  0-C ,  4-H ) :   0.9851 B(  0-C ,  5-H ) :   0.9754 
B(  0-C ,  6-H ) :   0.9838 B(  1-C ,  2-C ) :   0.9968 B(  1-C ,  7-H ) :   0.9797 
B(  1-C ,  8-H ) :   0.9807 B(  2-C ,  3-Br) :   0.9113 B(  2-C ,  9-H ) :   0.9556 
B(  2-C , 10-H ) :   0.9717 


------------------
HIRSHFELD ANALYSIS
------------------

Total integrated alpha density =     38.998080836
Total integrated beta density  =     38.998080836

  ATOM     CHARGE      SPIN    
   0 C   -0.056494    0.000000
   1 C   -0.021938    0.000000
   2 C    0.026494    0.000000
   3 Br  -0.207233    0.000000
   4 H    0.021711    0.000000
   5 H    0.001927    0.000000
   6 H    0.018774    0.000000
   7 H    0.019470    0.000000
   8 H    0.019304    0.000000
   9 H    0.010356    0.000000
  10 H    0.040868    0.000000
  11 Cl  -0.869402    0.000000

  TOTAL  -0.996162    0.000000

-------
TIMINGS
-------

Total SCF time: 0 days 0 hours 0 min 22 sec 

Total time                  ....      22.957 sec
Sum of individual times     ....      22.745 sec  ( 99.1%)

Fock matrix formation       ....      22.439 sec  ( 97.7%)
Diagonalization             ....       0.036 sec  (  0.2%)
Density matrix formation    ....       0.006 sec  (  0.0%)
Population analysis         ....       0.049 sec  (  0.2%)
Initial guess               ....       0.135 sec  (  0.6%)
Orbital Transformation      ....       0.000 sec  (  0.0%)
Orbital Orthonormalization  ....       0.000 sec  (  0.0%)
DIIS solution               ....       0.015 sec  (  0.1%)
SOSCF solution              ....       0.018 sec  (  0.1%)
[1632393753.131118] [comp0814:114154:0]            sys.c:618  UCX  ERROR shmget(size=2097152 flags=0xfb0) for mm_recv_desc failed: Operation not permitted, please check shared memory limits by 'ipcs -l'
[1632393753.133649] [comp0814:114155:0]            sys.c:618  UCX  ERROR shmget(size=2097152 flags=0xfb0) for mm_recv_desc failed: Operation not permitted, please check shared memory limits by 'ipcs -l'
[1632393753.140219] [comp0814:114152:0]            sys.c:618  UCX  ERROR shmget(size=2097152 flags=0xfb0) for mm_recv_desc failed: Operation not permitted, please check shared memory limits by 'ipcs -l'
[1632393753.141201] [comp0814:114153:0]            sys.c:618  UCX  ERROR shmget(size=2097152 flags=0xfb0) for mm_recv_desc failed: Operation not permitted, please check shared memory limits by 'ipcs -l'
[1632393753.152565] [comp0814:114152:0]            sys.c:618  UCX  ERROR shmget(size=2097152 flags=0xb80) for ucp_am_bufs failed: Operation not permitted, please check shared memory limits by 'ipcs -l'
[1632393753.152583] [comp0814:114154:0]            sys.c:618  UCX  ERROR shmget(size=2097152 flags=0xb80) for ucp_am_bufs failed: Operation not permitted, please check shared memory limits by 'ipcs -l'


           ************************************************************
           *        Program running with 4 parallel MPI-processes     *
           *              working on a common directory               *
           ************************************************************
[1632393753.155796] [comp0814:114153:0]            sys.c:618  UCX  ERROR shmget(size=2097152 flags=0xb80) for ucp_am_bufs failed: Operation not permitted, please check shared memory limits by 'ipcs -l'


------------------------------------------------------------------------------- 
                              ORCA-MATRIX DRIVEN CI                            
------------------------------------------------------------------------------- 

--------------------------------
AUTOMATIC CHOICE OF INCORE LEVEL
--------------------------------

Memory available                           ...   2000.00 MB
Memory needed for S+T                      ...    189.71 MB
Memory needed for J+K                      ...    380.12 MB
Memory needed for DIIS                     ...   2655.93 MB
Memory needed for 3-ext                    ...    995.29 MB
Memory needed for 4-ext                    ...   4116.87 MB
Memory needed for triples                  ...    226.20 MB
 -> Final InCoreLevel    ... 2
 -> check shows that triples correction can be computed


Wavefunction type
-----------------
Correlation treatment                      ...      CCSD     
Single excitations                         ... ON
Orbital optimization                       ... OFF
Calculation of Z vector                    ... OFF
Calculation of Brueckner orbitals          ... OFF
Perturbative triple excitations            ... ON
Calculation of F12 correction              ... OFF
Frozen core treatment                      ... chemical core (34 el)
Reference Wavefunction                     ... RHF
  Internal Orbitals:    17 ...   38 ( 22 MO's/ 44 electrons)
  Virtual  Orbitals:    39 ...  219 (181 MO's              )
Number of AO's                             ...    220
Number of electrons                        ...     78
Number of correlated electrons             ...     44

Algorithmic settings
--------------------
Integral transformation                    ... AO direct full transformation
K(C) Formation                             ... FULL-MO TRAFO
Maximum number of iterations               ...        50
Convergence tolerance (max. residuum)      ... 2.500e-05
Level shift for amplitude update           ... 2.000e-01
Maximum number of DIIS vectors             ...         7
DIIS turned on at iteration                ...         0
Damping before turning on DIIS             ...     0.500
Damping after turning on DIIS              ...     0.000
Pair specific amplitude update             ... OFF
Natural orbital iterations                 ... OFF
Perturbative natural orbital generation    ... OFF
Printlevel                                 ... 2

Memory handling:
----------------
Maximum memory for working arrays          ...   2000 MB
Data storage in matrix containers          ... UNCOMPRESSED
Data type for integral storage             ... DOUBLE
In-Core Storage of quantities:
   Amplitudes+Sigma Vector      ... YES
   J+K operators                ... YES
   DIIS vectors                 ... NO
   3-external integrals         ... NO
   4-external integrals         ... NO


Initializing the integral package          ... [1632393753.221766] [comp0814:114155:0]            sys.c:618  UCX  ERROR shmget(size=2097152 flags=0xb80) for ucp_am_bufs failed: Operation not permitted, please check shared memory limits by 'ipcs -l'
done
Warning: reference  - re-canonicalizations have been set to INT 1 VIRT 1

--------------------------
CLOSED-SHELL FOCK OPERATOR
--------------------------

MDCI_FockCPCM: ediel   =  -0.102301738000
MDCI_FockCPCM: <VCPCM> =  -5.405894472721
<ss|ss>:       485605 b        74559 skpd ( 15.4%)    0.025 s ( 0.000 ms/b)
<ss|sp>:      1062815 b       178750 skpd ( 16.8%)    0.103 s ( 0.000 ms/b)
<ss|sd>:       492500 b        86627 skpd ( 17.6%)    0.063 s ( 0.000 ms/b)
<ss|sf>:       203895 b        35511 skpd ( 17.4%)    0.029 s ( 0.000 ms/b)
<ss|pp>:       307320 b        48897 skpd ( 15.9%)    0.050 s ( 0.000 ms/b)
<ss|pd>:       272845 b        47416 skpd ( 17.4%)    0.065 s ( 0.000 ms/b)
<ss|pf>:       117215 b        24908 skpd ( 21.2%)    0.032 s ( 0.000 ms/b)
<ss|dd>:        71905 b        13460 skpd ( 18.7%)    0.031 s ( 0.001 ms/b)
<ss|df>:        56145 b        12853 skpd ( 22.9%)    0.021 s ( 0.000 ms/b)
<ss|ff>:        14775 b         3082 skpd ( 20.9%)    0.008 s ( 0.001 ms/b)
<sp|sp>:       582660 b       103761 skpd ( 17.8%)    0.086 s ( 0.000 ms/b)
<sp|sd>:       539500 b       104456 skpd ( 19.4%)    0.112 s ( 0.000 ms/b)
<sp|sf>:       223353 b        43256 skpd ( 19.4%)    0.055 s ( 0.000 ms/b)
<sp|pp>:       336648 b        54605 skpd ( 16.2%)    0.104 s ( 0.000 ms/b)
<sp|pd>:       298883 b        54781 skpd ( 18.3%)    0.153 s ( 0.001 ms/b)
<sp|pf>:       128401 b        28959 skpd ( 22.6%)    0.072 s ( 0.001 ms/b)
<sp|dd>:        78767 b        16039 skpd ( 20.4%)    0.075 s ( 0.001 ms/b)
<sp|df>:        61503 b        15418 skpd ( 25.1%)    0.051 s ( 0.001 ms/b)
<sp|ff>:        16185 b         3777 skpd ( 23.3%)    0.020 s ( 0.002 ms/b)
<sd|sd>:       125250 b        26155 skpd ( 20.9%)    0.043 s ( 0.000 ms/b)
<sd|sf>:       103500 b        21776 skpd ( 21.0%)    0.045 s ( 0.001 ms/b)
<sd|pp>:       156000 b        28065 skpd ( 18.0%)    0.084 s ( 0.001 ms/b)
<sd|pd>:       138500 b        27883 skpd ( 20.1%)    0.127 s ( 0.001 ms/b)
<sd|pf>:        59500 b        14908 skpd ( 25.1%)    0.060 s ( 0.001 ms/b)
<sd|dd>:        36500 b         7824 skpd ( 21.4%)    0.069 s ( 0.002 ms/b)
<sd|df>:        28500 b         7857 skpd ( 27.6%)    0.047 s ( 0.002 ms/b)
<sd|ff>:         7500 b         2037 skpd ( 27.2%)    0.018 s ( 0.003 ms/b)
<sf|sf>:        21528 b         4460 skpd ( 20.7%)    0.015 s ( 0.001 ms/b)
<sf|pp>:        64584 b        11678 skpd ( 18.1%)    0.055 s ( 0.001 ms/b)
<sf|pd>:        57339 b        11636 skpd ( 20.3%)    0.084 s ( 0.002 ms/b)
<sf|pf>:        24633 b         6149 skpd ( 25.0%)    0.042 s ( 0.002 ms/b)
<sf|dd>:        15111 b         3307 skpd ( 21.9%)    0.048 s ( 0.004 ms/b)
<sf|df>:        11799 b         3357 skpd ( 28.5%)    0.034 s ( 0.004 ms/b)
<sf|ff>:         3105 b          919 skpd ( 29.6%)    0.013 s ( 0.006 ms/b)
<pp|pp>:        48828 b         7088 skpd ( 14.5%)    0.040 s ( 0.001 ms/b)
<pp|pd>:        86424 b        14161 skpd ( 16.4%)    0.119 s ( 0.002 ms/b)
<pp|pf>:        37128 b         7529 skpd ( 20.3%)    0.059 s ( 0.002 ms/b)
<pp|dd>:        22776 b         4238 skpd ( 18.6%)    0.062 s ( 0.003 ms/b)
<pp|df>:        17784 b         4076 skpd ( 22.9%)    0.046 s ( 0.003 ms/b)
<pp|ff>:         4680 b          980 skpd ( 20.9%)    0.018 s ( 0.005 ms/b)
<pd|pd>:        38503 b         7161 skpd ( 18.6%)    0.108 s ( 0.003 ms/b)
<pd|pf>:        32963 b         7714 skpd ( 23.4%)    0.090 s ( 0.004 ms/b)
<pd|dd>:        20221 b         4180 skpd ( 20.7%)    0.099 s ( 0.006 ms/b)
<pd|df>:        15789 b         4188 skpd ( 26.5%)    0.073 s ( 0.006 ms/b)
<pd|ff>:         4155 b         1049 skpd ( 25.2%)    0.030 s ( 0.010 ms/b)
<pf|pf>:         7140 b         1977 skpd ( 27.7%)    0.028 s ( 0.005 ms/b)
<pf|dd>:         8687 b         2250 skpd ( 25.9%)    0.057 s ( 0.009 ms/b)
<pf|df>:         6783 b         2164 skpd ( 31.9%)    0.045 s ( 0.010 ms/b)
<pf|ff>:         1785 b          591 skpd ( 33.1%)    0.018 s ( 0.015 ms/b)
<dd|dd>:         2701 b          585 skpd ( 21.7%)    0.031 s ( 0.015 ms/b)
<dd|df>:         4161 b         1153 skpd ( 27.7%)    0.038 s ( 0.013 ms/b)
<dd|ff>:         1095 b          303 skpd ( 27.7%)    0.015 s ( 0.020 ms/b)
<df|df>:         1653 b          586 skpd ( 35.5%)    0.020 s ( 0.018 ms/b)
<df|ff>:          855 b          324 skpd ( 37.9%)    0.015 s ( 0.027 ms/b)
<ff|ff>:          120 b           45 skpd ( 37.5%)    0.004 s ( 0.057 ms/b)
Recanonicalizing the internal orbitals
Recanonicalizing the virtual orbitals
Time needed for Fock operator              ...            2.968 sec
Reference energy                           ...  -3149.813577276

------------------------------
PARTIAL COULOMB TRANSFORMATION
------------------------------

Transformation type                        ... one-operator
Dimension of the basis                     ...  220
Number of internal MOs                     ...  203 (17-219)
Pair cutoff                                ... 0.000e+00 Eh
Number of AO pairs included in the trafo   ... 24276
Total Number of distinct AO pairs          ... 24310
Memory devoted for trafo                   ... 2000.0 MB 
Max. Number of MO pairs treated together   ... 10783      
Max. Number of MOs treated per batch       ...   49      
Number Format for Storage                  ... Double (8 Byte)
AO-integral source                         ... DIRECT
Integral package used                      ... LIBINT

Starting integral evaluation:
<ss|**>:      3569640 b        0 skpd     0.664 s (  0.000 ms/b)
<sp|**>:      3910296 b        0 skpd     1.667 s (  0.000 ms/b)
<sd|**>:      1812000 b        0 skpd     1.345 s (  0.001 ms/b)
<sf|**>:       750168 b        0 skpd     0.805 s (  0.001 ms/b)
<pp|**>:      1130688 b        0 skpd     1.344 s (  0.001 ms/b)
<pd|**>:      1003848 b        0 skpd     2.107 s (  0.002 ms/b)
<pf|**>:       431256 b        0 skpd     1.180 s (  0.003 ms/b)
<dd|**>:       264552 b        0 skpd     0.910 s (  0.003 ms/b)
<df|**>:       206568 b        0 skpd     0.934 s (  0.005 ms/b)
<ff|**>:        54360 b        0 skpd     0.362 s (  0.007 ms/b)
Closing buffer AOJ ( 0.84 GB; CompressionRatio= 1.00)
Collecting buffer AOJ 
    ... done with AO integral generation
Number of MO pairs included in the trafo   ... 20706
    ... Now sorting integrals
IBATCH = 1 of  1
Closing buffer JAO ( 0.94 GB; CompressionRatio= 1.00)
Collecting buffer JAO 
TOTAL TIME for half transformation         ...    26.225 sec
AO-integral generation                     ...     6.424 sec
Half transformation                        ...     4.900 sec
J-integral sorting                         ...    14.135 sec

-------------------------- SECOND HALF TRANSFORMATION -------------------------
Formation of (pq|rs)                       ... ok (     8.484 sec)
Integral sorting                           ... ok (    11.546 sec)

------------------
CLOSED SHELL GUESS
------------------

Initial guess performed in     0.097 sec
E(0)                                       ...  -3149.813577276
E(MP2)                                     ...     -0.989669588
Initial E(tot)                             ...  -3150.803246864
<T|T>                                      ...      0.317229241
Number of pairs included                   ... 253
Total number of pairs                      ... 253

------------------------------------------------
                  RHF COUPLED CLUSTER ITERATIONS
------------------------------------------------

Number of amplitudes to be optimized       ... 8292515

Iter       E(tot)           E(Corr)          Delta-E          Residual     Time
  0  -3150.803246864     -0.989669588      0.000000000      0.015136784   13.38
                           *** Turning on DIIS ***
  1  -3150.833664393     -1.020087118     -0.030417529      0.002504152   15.72
  2  -3150.855924963     -1.042347687     -0.022260570      0.000905607   16.56
  3  -3150.860921500     -1.047344224     -0.004996537      0.000404044   16.16
  4  -3150.861672788     -1.048095512     -0.000751288      0.000223012   16.47
  5  -3150.861754098     -1.048176822     -0.000081310      0.000098963   16.56
  6  -3150.861771250     -1.048193974     -0.000017152      0.000045849   16.61
  7 [1632393929.528686] [comp0814:114153:0]            sys.c:618  UCX  ERROR shmget(size=6291456 flags=0xfb0) for mm_recv_desc failed: Operation not permitted, please check shared memory limits by 'ipcs -l'
 -3150.861772169     -1.048194893     -0.000000919      0.000017591   16.83
               --- The Coupled-Cluster iterations have converged ---

----------------------
COUPLED CLUSTER ENERGY
----------------------

E(0)                                       ...  -3149.813577276
E(CORR)                                    ...     -1.048194893
E(TOT)                                     ...  -3150.861772169
Singles Norm <S|S>**1/2                    ...      0.050754698  
T1 diagnostic                              ...      0.007651559  

------------------
LARGEST AMPLITUDES
------------------
  36-> 76  36-> 76       0.031523
  37-> 65  37-> 65       0.025106
  37-> 76  37-> 76       0.022899
  36-> 74  36-> 74       0.022245
  36-> 75  36-> 75       0.021980
  33-> 40  33-> 40       0.021180
  33-> 39  33-> 39       0.021070
  34-> 54  34-> 54       0.020608
  36-> 77  36-> 77       0.018777
  36-> 64  36-> 64       0.018676
  33-> 39  33-> 40       0.018437
  33-> 40  33-> 39       0.018437
  37-> 83  37-> 83       0.018099
  35-> 53  35-> 53       0.017177
  35-> 59  35-> 59       0.016721
  34-> 59  34-> 59       0.016259


        !!!!!!!!!!!!!!!!!!!!!!!!!!!!!!!!!!!!!!!!!!!!!!!!!!!!!!!!!!!!!!!!!!!!!!!!!! 
        !  Warning: Densities are linearized densities !                         !
        !!!!!!!!!!!!!!!!!!!!!!!!!!!!!!!!!!!!!!!!!!!!!!!!!!!!!!!!!!!!!!!!!!!!!!!!!! 

Trace of internal density part =     -0.746142253
Trace of external density part =      0.746142253
----------------------
RHF TRIPLES CORRECTION (Algorithm 1)
----------------------

Multiplier for the singles contribution    ...      1.000000000

10% done
20% done
30% done
40% done
50% done
60% done
70% done
80% done
90% done

Triples Correction (T)                     ...     -0.038983101
Scaling of triples based on CCSD energies (Peterson et al. Molecular Physics 113, 1551 (2015))
E(T*) = f*E(T) where f = E(F12-CCSD)/E(CCSD) 
f = CCSD (with F12)/ CCSD (without F12)    ...      1.000000000
Scaled triples correction (T)              ...     -0.038983101

Final correlation energy                   ...     -1.087177994
E(CCSD)                                    ...  -3150.861772169
E(CCSD(T))                                 ...  -3150.900755270

NORM  =      1.375647166 sqrt=     1.172879860
W(HF) =      0.726930586
------------------------------------------------------------------------------
                           ORCA POPULATION ANALYSIS
------------------------------------------------------------------------------
Input electron density              ... manual_reactants_336_sp.mdcip
BaseName (.gbw .S,...)              ... manual_reactants_336_sp

                    ********************************
                    * MULLIKEN POPULATION ANALYSIS *
                    ********************************

-----------------------
MULLIKEN ATOMIC CHARGES
-----------------------
   0 C :   -0.419370
   1 C :   -0.192654
   2 C :   -0.176688
   3 Br:   -0.216534
   4 H :    0.137851
   5 H :    0.130425
   6 H :    0.127338
   7 H :    0.116961
   8 H :    0.119047
   9 H :    0.149578
  10 H :    0.155362
  11 Cl:   -0.931316
Sum of atomic charges:   -1.0000000

--------------------------------
MULLIKEN REDUCED ORBITAL CHARGES
--------------------------------
  0 C s       :     3.238231  s :     3.238231
      pz      :     0.999279  p :     3.077633
      px      :     1.012149
      py      :     1.066205
      dz2     :     0.020596  d :     0.094638
      dxz     :     0.017033
      dyz     :     0.022800
      dx2y2   :     0.019888
      dxy     :     0.014322
      f0      :     0.001142  f :     0.008869
      f+1     :     0.001513
      f-1     :     0.001110
      f+2     :     0.001539
      f-2     :     0.001423
      f+3     :     0.000869
      f-3     :     0.001274
  1 C s       :     3.155254  s :     3.155254
      pz      :     0.979711  p :     2.895864
      px      :     0.897687
      py      :     1.018465
      dz2     :     0.026107  d :     0.130534
      dxz     :     0.026663
      dyz     :     0.027922
      dx2y2   :     0.029146
      dxy     :     0.020696
      f0      :     0.001422  f :     0.011002
      f+1     :     0.001796
      f-1     :     0.001228
      f+2     :     0.002005
      f-2     :     0.001547
      f+3     :     0.001396
      f-3     :     0.001608
  2 C s       :     3.171253  s :     3.171253
      pz      :     0.913031  p :     2.858088
      px      :     0.875892
      py      :     1.069165
      dz2     :     0.024791  d :     0.136959
      dxz     :     0.036165
      dyz     :     0.022286
      dx2y2   :     0.030017
      dxy     :     0.023699
      f0      :     0.001130  f :     0.010388
      f+1     :     0.001879
      f-1     :     0.001178
      f+2     :     0.001806
      f-2     :     0.001445
      f+3     :     0.001432
      f-3     :     0.001518
  3 Brs       :     7.905528  s :     7.905528
      pz      :     5.592245  p :    17.162871
      px      :     5.642075
      py      :     5.928551
      dz2     :     2.025191  d :    10.127816
      dxz     :     2.033032
      dyz     :     2.023476
      dx2y2   :     2.023964
      dxy     :     2.022153
      f0      :     0.002779  f :     0.020319
      f+1     :     0.003897
      f-1     :     0.002314
      f+2     :     0.003574
      f-2     :     0.002995
      f+3     :     0.002444
      f-3     :     0.002315
  4 H s       :     0.838185  s :     0.838185
      pz      :     0.005610  p :     0.023964
      px      :     0.012089
      py      :     0.006265
  5 H s       :     0.844731  s :     0.844731
      pz      :     0.011096  p :     0.024844
      px      :     0.006296
      py      :     0.007452
  6 H s       :     0.848822  s :     0.848822
      pz      :     0.005955  p :     0.023840
      px      :     0.005284
      py      :     0.012600
  7 H s       :     0.858988  s :     0.858988
      pz      :     0.006209  p :     0.024051
      px      :     0.004850
      py      :     0.012992
  8 H s       :     0.856922  s :     0.856922
      pz      :     0.010888  p :     0.024031
      px      :     0.005634
      py      :     0.007508
  9 H s       :     0.823011  s :     0.823011
      pz      :     0.013543  p :     0.027412
      px      :     0.005598
      py      :     0.008272
 10 H s       :     0.820276  s :     0.820276
      pz      :     0.005316  p :     0.024362
      px      :     0.004864
      py      :     0.014182
 11 Cls       :     5.959409  s :     5.959409
      pz      :     3.948282  p :    11.850630
      px      :     3.945098
      py      :     3.957250
      dz2     :     0.022347  d :     0.111227
      dxz     :     0.022190
      dyz     :     0.022485
      dx2y2   :     0.022116
      dxy     :     0.022089
      f0      :     0.001440  f :     0.010051
      f+1     :     0.001433
      f-1     :     0.001453
      f+2     :     0.001438
      f-2     :     0.001433
      f+3     :     0.001425
      f-3     :     0.001427


                     *******************************
                     * LOEWDIN POPULATION ANALYSIS *
                     *******************************

----------------------
LOEWDIN ATOMIC CHARGES
----------------------
   0 C :   -0.329085
   1 C :   -0.341228
   2 C :   -0.466485
   3 Br:    0.156407
   4 H :    0.123903
   5 H :    0.114546
   6 H :    0.122488
   7 H :    0.138518
   8 H :    0.136242
   9 H :    0.112154
  10 H :    0.132439
  11 Cl:   -0.899897

-------------------------------
LOEWDIN REDUCED ORBITAL CHARGES
-------------------------------
  0 C s       :     2.833560  s :     2.833560
      pz      :     1.057539  p :     3.162225
      px      :     1.039086
      py      :     1.065599
      dz2     :     0.068589  d :     0.301267
      dxz     :     0.058909
      dyz     :     0.067610
      dx2y2   :     0.066107
      dxy     :     0.040052
      f0      :     0.005126  f :     0.032034
      f+1     :     0.005679
      f-1     :     0.004126
      f+2     :     0.004296
      f-2     :     0.005892
      f+3     :     0.002432
      f-3     :     0.004482
  1 C s       :     2.784835  s :     2.784835
      pz      :     1.025540  p :     3.059708
      px      :     1.015579
      py      :     1.018588
      dz2     :     0.083105  d :     0.448995
      dxz     :     0.105475
      dyz     :     0.085107
      dx2y2   :     0.107190
      dxy     :     0.068118
      f0      :     0.006953  f :     0.047690
      f+1     :     0.008347
      f-1     :     0.004668
      f+2     :     0.006625
      f-2     :     0.007261
      f+3     :     0.006099
      f-3     :     0.007737
  2 C s       :     2.875147  s :     2.875147
      pz      :     1.012028  p :     3.107483
      px      :     1.014790
      py      :     1.080665
      dz2     :     0.075288  d :     0.442870
      dxz     :     0.128261
      dyz     :     0.062117
      dx2y2   :     0.107726
      dxy     :     0.069477
      f0      :     0.004324  f :     0.040986
      f+1     :     0.008258
      f-1     :     0.004082
      f+2     :     0.005586
      f-2     :     0.006299
      f+3     :     0.005443
      f-3     :     0.006993
  3 Brs       :     7.607938  s :     7.607938
      pz      :     5.556874  p :    17.009214
      px      :     5.582473
      py      :     5.869868
      dz2     :     2.043046  d :    10.198881
      dxz     :     2.056493
      dyz     :     2.034275
      dx2y2   :     2.035086
      dxy     :     2.029981
      f0      :     0.003770  f :     0.027559
      f+1     :     0.006079
      f-1     :     0.002725
      f+2     :     0.005077
      f-2     :     0.004310
      f+3     :     0.002905
      f-3     :     0.002692
  4 H s       :     0.809765  s :     0.809765
      pz      :     0.015950  p :     0.066333
      px      :     0.032957
      py      :     0.017426
  5 H s       :     0.816090  s :     0.816090
      pz      :     0.030464  p :     0.069364
      px      :     0.017591
      py      :     0.021309
  6 H s       :     0.811117  s :     0.811117
      pz      :     0.015887  p :     0.066395
      px      :     0.014125
      py      :     0.036384
  7 H s       :     0.797500  s :     0.797500
      pz      :     0.015688  p :     0.063982
      px      :     0.012948
      py      :     0.035346
  8 H s       :     0.799690  s :     0.799690
      pz      :     0.027780  p :     0.064068
      px      :     0.015026
      py      :     0.021263
  9 H s       :     0.810634  s :     0.810634
      pz      :     0.038662  p :     0.077213
      px      :     0.014351
      py      :     0.024199
 10 H s       :     0.799172  s :     0.799172
      pz      :     0.014446  p :     0.068389
      px      :     0.012652
      py      :     0.041291
 11 Cls       :     5.956002  s :     5.956002
      pz      :     3.926645  p :    11.820762
      px      :     3.944287
      py      :     3.949830
      dz2     :     0.022875  d :     0.113004
      dxz     :     0.022416
      dyz     :     0.023215
      dx2y2   :     0.022310
      dxy     :     0.022188
      f0      :     0.001450  f :     0.010129
      f+1     :     0.001437
      f-1     :     0.001494
      f+2     :     0.001453
      f-2     :     0.001438
      f+3     :     0.001427
      f-3     :     0.001431


------------------
HIRSHFELD ANALYSIS
------------------

Total integrated alpha density =     38.998225663
Total integrated beta density  =     38.998225663

  ATOM     CHARGE      SPIN  
   0 C   -0.075862    0.000000
   1 C   -0.038896    0.000000
   2 C   -0.007796    0.000000
   3 Br  -0.173528    0.000000
   4 H    0.028004    0.000000
   5 H    0.006221    0.000000
   6 H    0.025310    0.000000
   7 H    0.024659    0.000000
   8 H    0.024741    0.000000
   9 H    0.009720    0.000000
  10 H    0.042987    0.000000
  11 Cl  -0.862010    0.000000

  TOTAL  -0.996451    0.000000     69583.7


                      *****************************
                      * MAYER POPULATION ANALYSIS *
                      *****************************

  NA   - Mulliken gross atomic population
  ZA   - Total nuclear charge
  QA   - Mulliken gross atomic charge
  VA   - Mayer's total valence
  BVA  - Mayer's bonded valence
  FA   - Mayer's free valence

  ATOM       NA         ZA         QA         VA         BVA        FA
  0 C      6.4194     6.0000    -0.4194     4.0179     3.6518     0.3661
  1 C      6.1927     6.0000    -0.1927     3.9932     3.6332     0.3600
  2 C      6.1767     6.0000    -0.1767     3.9576     3.5729     0.3847
  3 Br    35.2165    35.0000    -0.2165     1.5791     0.9069     0.6722
  4 H      0.8621     1.0000     0.1379     0.9727     0.9088     0.0639
  5 H      0.8696     1.0000     0.1304     1.0249     0.9582     0.0667
  6 H      0.8727     1.0000     0.1273     0.9777     0.9127     0.0650
  7 H      0.8830     1.0000     0.1170     0.9831     0.9175     0.0656
  8 H      0.8810     1.0000     0.1190     0.9795     0.9144     0.0650
  9 H      0.8504     1.0000     0.1496     1.0476     0.9826     0.0650
 10 H      0.8446     1.0000     0.1554     0.9718     0.9089     0.0628
 11 Cl    17.9313    17.0000    -0.9313     0.7910     0.1100     0.6809

  Mayer bond orders larger than 0.100000
B(  0-C ,  1-C ) :   0.9048 B(  0-C ,  4-H ) :   0.9226 B(  0-C ,  5-H ) :   0.9134 
B(  0-C ,  6-H ) :   0.9233 B(  1-C ,  2-C ) :   0.9319 B(  1-C ,  7-H ) :   0.9156 
B(  1-C ,  8-H ) :   0.9179 B(  2-C ,  3-Br) :   0.8717 B(  2-C ,  9-H ) :   0.8929 
B(  2-C , 10-H ) :   0.9112 



------------------------------------------------------------------------------- 
                                     TIMINGS                                   
------------------------------------------------------------------------------- 


Total execution time                   ...      444.466 sec

Fock Matrix Formation                  ...        2.968 sec (  0.7%)
Initial Guess                          ...        0.097 sec (  0.0%)
DIIS Solver                            ...        5.918 sec (  1.3%)
State Vector Update                    ...        0.256 sec (  0.1%)
Sigma-vector construction              ...      122.112 sec ( 27.5%)
  <0|H|D>                              ...        0.081 sec (  0.1% of sigma)
  <D|H|D>(0-ext)                       ...       10.198 sec (  8.4% of sigma)
  <D|H|D>(2-ext Fock)                  ...        0.237 sec (  0.2% of sigma)
  <D|H|D>(2-ext)                       ...       16.105 sec ( 13.2% of sigma)
  <D|H|D>(4-ext)                       ...       13.549 sec ( 11.1% of sigma)
  <D|H|D>(4-ext-corr)                  ...       11.552 sec (  9.5% of sigma)
  <S|H|0>                              ...        0.044 sec (  0.0% of sigma)
  <S|H|S>                              ...        0.158 sec (  0.1% of sigma)
  <S|H|D>(1-ext)                       ...        1.485 sec (  1.2% of sigma)
  <D|H|S>(1-ext)                       ...        2.679 sec (  2.2% of sigma)
  <S|H|D>(3-ext)                       ...        9.094 sec (  7.4% of sigma)
  Fock-dressing                        ...       16.217 sec ( 13.3% of sigma)
  (ik|jl)-dressing                     ...       11.937 sec (  9.8% of sigma)
  (ij|ab),(ia|jb)-dressing             ...       27.638 sec ( 22.6% of sigma)
  Pair energies                        ...        0.095 sec (  0.1% of sigma)
Total Time for computing (T)           ...      239.332 sec ( 53.8% of ALL)
  I/O of integral and amplitudes       ...       13.166 sec (  5.5% of (T))
  N**6 sorting step                    ...       81.578 sec ( 34.1% of (T))
  External N**7 contributions          ...       91.472 sec ( 38.2% of (T))
  Internal N**7 contributions          ...       23.412 sec (  9.8% of (T))
  N**6 triples energy contributions    ...       29.702 sec ( 12.4% of (T))
One-particle density matrix            ...        0.241 sec (  0.1%)


-------------------------   --------------------
FINAL SINGLE POINT ENERGY     -3150.900755269902
-------------------------   --------------------


                            ***************************************
                            *     ORCA property calculations      *
                            ***************************************

                                    ---------------------
                                    Active property flags
                                    ---------------------
   (+) Dipole Moment


------------------------------------------------------------------------------
                       ORCA ELECTRIC PROPERTIES CALCULATION
------------------------------------------------------------------------------

Dipole Moment Calculation                       ... on
Quadrupole Moment Calculation                   ... off
Polarizability Calculation                      ... off
GBWName                                         ... manual_reactants_336_sp.gbw
Electron density file                           ... manual_reactants_336_sp.scfp
The origin for moment calculation is the CENTER OF MASS  = (-0.016969, -0.008353 -0.025271)

-------------
DIPOLE MOMENT
-------------
                                X             Y             Z
Electronic contribution:     20.38445       1.05313     -15.43035
Nuclear contribution   :    -21.01197       1.18516      10.86099
                        -----------------------------------------
Total Dipole Moment    :     -0.62752       2.23828      -4.56937
                        -----------------------------------------
Magnitude (a.u.)       :      5.12667
Magnitude (Debye)      :     13.03097



--------------------
Rotational spectrum 
--------------------
 
Rotational constants in cm-1:     0.083294     0.027603     0.021274 
Rotational constants in MHz :  2497.086347   827.525145   637.783977 

 Dipole components along the rotational axes: 
x,y,z [a.u.] :    -4.460697    -2.502578     0.349403 
x,y,z [Debye]:   -11.338191    -6.361047     0.888111 

 

                           *** MDCI DENSITY ***

------------------------------------------------------------------------------
                       ORCA ELECTRIC PROPERTIES CALCULATION
------------------------------------------------------------------------------

Dipole Moment Calculation                       ... on
Quadrupole Moment Calculation                   ... off
Polarizability Calculation                      ... off
GBWName                                         ... manual_reactants_336_sp.gbw
Electron density file                           ... manual_reactants_336_sp.mdcip
The origin for moment calculation is the CENTER OF MASS  = (-0.016969, -0.008353 -0.025271)

-------------
DIPOLE MOMENT
-------------
                                X             Y             Z
Electronic contribution:     20.49832       1.01345     -15.49355
Nuclear contribution   :    -21.01197       1.18516      10.86099
                        -----------------------------------------
Total Dipole Moment    :     -0.51365       2.19861      -4.63256
                        -----------------------------------------
Magnitude (a.u.)       :      5.15347
Magnitude (Debye)      :     13.09909



--------------------
Rotational spectrum 
--------------------
 
Rotational constants in cm-1:     0.083294     0.027603     0.021274 
Rotational constants in MHz :  2497.086347   827.525145   637.783977 

 Dipole components along the rotational axes: 
x,y,z [a.u.] :    -4.547355    -2.404795     0.311169 
x,y,z [Debye]:   -11.558458    -6.112502     0.790928 

 
[1632394199.329952] [comp0814:114240:0]            sys.c:618  UCX  ERROR shmget(size=2097152 flags=0xfb0) for mm_recv_desc failed: Operation not permitted, please check shared memory limits by 'ipcs -l'
[1632394199.338489] [comp0814:114239:0]            sys.c:618  UCX  ERROR shmget(size=2097152 flags=0xfb0) for mm_recv_desc failed: Operation not permitted, please check shared memory limits by 'ipcs -l'
[1632394199.339119] [comp0814:114238:0]            sys.c:618  UCX  ERROR shmget(size=2097152 flags=0xfb0) for mm_recv_desc failed: Operation not permitted, please check shared memory limits by 'ipcs -l'
[1632394199.341509] [comp0814:114237:0]            sys.c:618  UCX  ERROR shmget(size=2097152 flags=0xfb0) for mm_recv_desc failed: Operation not permitted, please check shared memory limits by 'ipcs -l'
[1632394199.358987] [comp0814:114239:0]            sys.c:618  UCX  ERROR shmget(size=2097152 flags=0xb80) for ucp_am_bufs failed: Operation not permitted, please check shared memory limits by 'ipcs -l'
[1632394199.359013] [comp0814:114237:0]            sys.c:618  UCX  ERROR shmget(size=2097152 flags=0xb80) for ucp_am_bufs failed: Operation not permitted, please check shared memory limits by 'ipcs -l'
[1632394199.363609] [comp0814:114238:0]            sys.c:618  UCX  ERROR shmget(size=2097152 flags=0xb80) for ucp_am_bufs failed: Operation not permitted, please check shared memory limits by 'ipcs -l'
[1632394199.363623] [comp0814:114240:0]            sys.c:618  UCX  ERROR shmget(size=2097152 flags=0xb80) for ucp_am_bufs failed: Operation not permitted, please check shared memory limits by 'ipcs -l'

Timings for individual modules:

Sum of individual times         ...      471.127 sec (=   7.852 min)
GTO integral calculation        ...        1.203 sec (=   0.020 min)   0.3 %
SCF iterations                  ...       23.873 sec (=   0.398 min)   5.1 %
MDCI module                     ...      446.051 sec (=   7.434 min)  94.7 %
                             ****ORCA TERMINATED NORMALLY****
TOTAL RUN TIME: 0 days 0 hours 7 minutes 52 seconds 197 msec
